
     Program PWSCF v.7.0 starts on 20Mar2022 at 23:28:10 

     This program is part of the open-source Quantum ESPRESSO suite
     for quantum simulation of materials; please cite
         "P. Giannozzi et al., J. Phys.:Condens. Matter 21 395502 (2009);
         "P. Giannozzi et al., J. Phys.:Condens. Matter 29 465901 (2017);
         "P. Giannozzi et al., J. Chem. Phys. 152 154105 (2020);
          URL http://www.quantum-espresso.org", 
     in publications or presentations arising from this work. More details at
     http://www.quantum-espresso.org/quote

     Parallel version (MPI), running on    90 processors

     MPI processes distributed on     1 nodes
     R & G space division:  proc/nbgrp/npool/nimage =      90
     375760 MiB available memory on the printing compute node when the environment starts
 
     Reading input from base.in
Warning: card &CELL ignored
Warning: card / ignored

     Current dimensions of program PWSCF are:
     Max number of different atomic species (ntypx) = 10
     Max number of k-points (npk) =  40000
     Max angular momentum in pseudopotentials (lmaxx) =  4
     Found identity + ( -0.5000  0.0000  0.0000) symmetry
     This is a supercell, fractional translations are disabled
     Message from routine setup:
     using ibrav=0 with symmetry is DISCOURAGED, use correct ibrav instead

     Subspace diagonalization in iterative solution of the eigenvalue problem:
     one sub-group per band group will be used
     scalapack distributed-memory algorithm (size of sub-group:  9*  9 procs)

 
     Parallelization info
     --------------------
     sticks:   dense  smooth     PW     G-vecs:    dense   smooth      PW
     Min         119      39     10                62737    12039    1676
     Max         120      40     11                62810    12104    1727
     Sum       10797    3593    973              5650301  1087197  153831
 
     Using Slab Decomposition
 


     bravais-lattice index     =            0
     lattice parameter (alat)  =      10.7434  a.u.
     unit-cell volume          =    8296.9641 (a.u.)^3
     number of atoms/cell      =           20
     number of atomic types    =            2
     number of electrons       =       376.00
     number of Kohn-Sham states=          226
     kinetic-energy cutoff     =      98.0000  Ry
     charge density cutoff     =    1176.0000  Ry
     scf convergence threshold =      7.0E-06
     mixing beta               =       0.7000
     number of iterations used =            8  local-TF  mixing
     Exchange-correlation= PBESOL
                           (   1   4  10   8   0   0   0)

     celldm(1)=  10.743355  celldm(2)=   0.000000  celldm(3)=   0.000000
     celldm(4)=   0.000000  celldm(5)=   0.000000  celldm(6)=   0.000000

     crystal axes: (cart. coord. in units of alat)
               a(1) = (   1.000000   0.000000   0.000000 )  
               a(2) = (   0.000000   1.000000   0.000000 )  
               a(3) = (   0.000000   0.000000   6.691130 )  

     reciprocal axes: (cart. coord. in units 2 pi/alat)
               b(1) = (  1.000000  0.000000  0.000000 )  
               b(2) = (  0.000000  1.000000  0.000000 )  
               b(3) = (  0.000000  0.000000  0.149452 )  


     PseudoPot. # 1 for Ag read from file:
     ../pseudo/Ag.upf
     MD5 check sum: ad830d0ddad01bb1c4c3455ef2da8ae5
     Pseudo is Norm-conserving + core correction, Zval = 19.0
     Generated using ONCVPSP code by D. R. Hamann
     Using radial grid of 1538 points,  6 beta functions with: 
                l(1) =   0
                l(2) =   0
                l(3) =   1
                l(4) =   1
                l(5) =   2
                l(6) =   2

     PseudoPot. # 2 for Ni read from file:
     ../pseudo/Ni.upf
     MD5 check sum: 3ec56ad6bf78c9cc1bbec815420e1c7d
     Pseudo is Norm-conserving + core correction, Zval = 18.0
     Generated using ONCVPSP code by D. R. Hamann
     Using radial grid of 1356 points,  6 beta functions with: 
                l(1) =   0
                l(2) =   0
                l(3) =   1
                l(4) =   1
                l(5) =   2
                l(6) =   2

     atomic species   valence    mass     pseudopotential
        Ag            19.00   107.86820     Ag( 1.00)
        Ni            18.00    58.69340     Ni( 1.00)

     Starting magnetic structure 
     atomic species   magnetization
        Ag           0.100
        Ni           0.278

      8 Sym. Ops. (no inversion) found


                                    s                        frac. trans.

      isym =  1     identity                                     

 cryst.   s( 1) = (     1          0          0      )
                  (     0          1          0      )
                  (     0          0          1      )

 cart.    s( 1) = (  1.0000000  0.0000000  0.0000000 )
                  (  0.0000000  1.0000000  0.0000000 )
                  (  0.0000000  0.0000000  1.0000000 )


      isym =  2     180 deg rotation - cart. axis [0,0,1]        

 cryst.   s( 2) = (    -1          0          0      )
                  (     0         -1          0      )
                  (     0          0          1      )

 cart.    s( 2) = ( -1.0000000  0.0000000  0.0000000 )
                  (  0.0000000 -1.0000000  0.0000000 )
                  (  0.0000000  0.0000000  1.0000000 )


      isym =  3      90 deg rotation - cart. axis [0,0,-1]       

 cryst.   s( 3) = (     0         -1          0      )
                  (     1          0          0      )
                  (     0          0          1      )

 cart.    s( 3) = (  0.0000000  1.0000000  0.0000000 )
                  ( -1.0000000  0.0000000  0.0000000 )
                  (  0.0000000  0.0000000  1.0000000 )


      isym =  4      90 deg rotation - cart. axis [0,0,1]        

 cryst.   s( 4) = (     0          1          0      )
                  (    -1          0          0      )
                  (     0          0          1      )

 cart.    s( 4) = (  0.0000000 -1.0000000  0.0000000 )
                  (  1.0000000  0.0000000  0.0000000 )
                  (  0.0000000  0.0000000  1.0000000 )


      isym =  5     inv. 180 deg rotation - cart. axis [0,1,0]   

 cryst.   s( 5) = (     1          0          0      )
                  (     0         -1          0      )
                  (     0          0          1      )

 cart.    s( 5) = (  1.0000000  0.0000000  0.0000000 )
                  (  0.0000000 -1.0000000  0.0000000 )
                  (  0.0000000  0.0000000  1.0000000 )


      isym =  6     inv. 180 deg rotation - cart. axis [1,0,0]   

 cryst.   s( 6) = (    -1          0          0      )
                  (     0          1          0      )
                  (     0          0          1      )

 cart.    s( 6) = ( -1.0000000  0.0000000  0.0000000 )
                  (  0.0000000  1.0000000  0.0000000 )
                  (  0.0000000  0.0000000  1.0000000 )


      isym =  7     inv. 180 deg rotation - cart. axis [1,1,0]   

 cryst.   s( 7) = (     0         -1          0      )
                  (    -1          0          0      )
                  (     0          0          1      )

 cart.    s( 7) = (  0.0000000 -1.0000000  0.0000000 )
                  ( -1.0000000  0.0000000  0.0000000 )
                  (  0.0000000  0.0000000  1.0000000 )


      isym =  8     inv. 180 deg rotation - cart. axis [1,-1,0]  

 cryst.   s( 8) = (     0          1          0      )
                  (     1          0          0      )
                  (     0          0          1      )

 cart.    s( 8) = (  0.0000000  1.0000000  0.0000000 )
                  (  1.0000000  0.0000000  0.0000000 )
                  (  0.0000000  0.0000000  1.0000000 )


   Cartesian axes

     site n.     atom                  positions (alat units)
         1           Ag  tau(   1) = (   0.0000000   0.0000000   2.6384581  )
         2           Ag  tau(   2) = (   0.5000000   0.0000000   2.6384581  )
         3           Ag  tau(   3) = (   0.0000000   0.5000000   2.6384581  )
         4           Ag  tau(   4) = (   0.5000000   0.5000000   2.6384581  )
         5           Ag  tau(   5) = (   0.2500000   0.2500000   2.9861117  )
         6           Ag  tau(   6) = (   0.7500000   0.2500000   2.9861117  )
         7           Ag  tau(   7) = (   0.2500000   0.7500000   2.9861117  )
         8           Ag  tau(   8) = (   0.7500000   0.7500000   2.9861117  )
         9           Ag  tau(   9) = (   0.0000000   0.0000000   3.3455743  )
        10           Ag  tau(  10) = (   0.5000000   0.0000000   3.3455743  )
        11           Ag  tau(  11) = (   0.0000000   0.5000000   3.3455743  )
        12           Ag  tau(  12) = (   0.5000000   0.5000000   3.3455743  )
        13           Ni  tau(  13) = (   0.2500000   0.2500000   3.7051508  )
        14           Ni  tau(  14) = (   0.7500000   0.2500000   3.7051508  )
        15           Ni  tau(  15) = (   0.2500000   0.7500000   3.7051508  )
        16           Ni  tau(  16) = (   0.7500000   0.7500000   3.7051508  )
        17           Ag  tau(  17) = (   0.0000000   0.0000000   4.0558590  )
        18           Ag  tau(  18) = (   0.5000000   0.0000000   4.0558590  )
        19           Ag  tau(  19) = (   0.0000000   0.5000000   4.0558590  )
        20           Ag  tau(  20) = (   0.5000000   0.5000000   4.0558590  )

   Crystallographic axes

     site n.     atom                  positions (cryst. coord.)
         1           Ag  tau(   1) = (  0.0000000  0.0000000  0.3943218  )
         2           Ag  tau(   2) = (  0.5000000  0.0000000  0.3943218  )
         3           Ag  tau(   3) = (  0.0000000  0.5000000  0.3943218  )
         4           Ag  tau(   4) = (  0.5000000  0.5000000  0.3943218  )
         5           Ag  tau(   5) = (  0.2500000  0.2500000  0.4462791  )
         6           Ag  tau(   6) = (  0.7500000  0.2500000  0.4462791  )
         7           Ag  tau(   7) = (  0.2500000  0.7500000  0.4462791  )
         8           Ag  tau(   8) = (  0.7500000  0.7500000  0.4462791  )
         9           Ag  tau(   9) = (  0.0000000  0.0000000  0.5000014  )
        10           Ag  tau(  10) = (  0.5000000  0.0000000  0.5000014  )
        11           Ag  tau(  11) = (  0.0000000  0.5000000  0.5000014  )
        12           Ag  tau(  12) = (  0.5000000  0.5000000  0.5000014  )
        13           Ni  tau(  13) = (  0.2500000  0.2500000  0.5537407  )
        14           Ni  tau(  14) = (  0.7500000  0.2500000  0.5537407  )
        15           Ni  tau(  15) = (  0.2500000  0.7500000  0.5537407  )
        16           Ni  tau(  16) = (  0.7500000  0.7500000  0.5537407  )
        17           Ag  tau(  17) = (  0.0000000  0.0000000  0.6061546  )
        18           Ag  tau(  18) = (  0.5000000  0.0000000  0.6061546  )
        19           Ag  tau(  19) = (  0.0000000  0.5000000  0.6061546  )
        20           Ag  tau(  20) = (  0.5000000  0.5000000  0.6061546  )

     number of k points=     6  Marzari-Vanderbilt smearing, width (Ry)=  0.0220
                       cart. coord. in units 2pi/alat
        k(    1) = (   0.0000000   0.0000000   0.0000000), wk =   0.0625000
        k(    2) = (   0.0000000   0.2500000   0.0000000), wk =   0.2500000
        k(    3) = (   0.0000000  -0.5000000   0.0000000), wk =   0.1250000
        k(    4) = (   0.2500000   0.2500000   0.0000000), wk =   0.2500000
        k(    5) = (   0.2500000  -0.5000000   0.0000000), wk =   0.2500000
        k(    6) = (  -0.5000000  -0.5000000   0.0000000), wk =   0.0625000

                       cryst. coord.
        k(    1) = (   0.0000000   0.0000000   0.0000000), wk =   0.0625000
        k(    2) = (   0.0000000   0.2500000   0.0000000), wk =   0.2500000
        k(    3) = (   0.0000000  -0.5000000   0.0000000), wk =   0.1250000
        k(    4) = (   0.2500000   0.2500000   0.0000000), wk =   0.2500000
        k(    5) = (   0.2500000  -0.5000000   0.0000000), wk =   0.2500000
        k(    6) = (  -0.5000000  -0.5000000   0.0000000), wk =   0.0625000

     Dense  grid:  5650301 G-vectors     FFT dimensions: ( 120, 120, 800)

     Smooth grid:  1087197 G-vectors     FFT dimensions: (  72,  72, 480)

     Dynamical RAM for                 wfc:       5.21 MB

     Dynamical RAM for     wfc (w. buffer):      67.69 MB

     Dynamical RAM for           str. fact:       1.92 MB

     Dynamical RAM for           local pot:       0.00 MB

     Dynamical RAM for          nlocal pot:       8.29 MB

     Dynamical RAM for                qrad:       5.50 MB

     Dynamical RAM for          rho,v,vnew:      11.68 MB

     Dynamical RAM for               rhoin:       3.89 MB

     Dynamical RAM for            rho*nmix:      30.66 MB

     Dynamical RAM for           G-vectors:       3.69 MB

     Dynamical RAM for          h,s,v(r/c):       0.11 MB

     Dynamical RAM for          <psi|beta>:       1.24 MB

     Dynamical RAM for                 psi:      10.41 MB

     Dynamical RAM for                hpsi:      10.41 MB

     Dynamical RAM for      wfcinit/wfcrot:      11.59 MB

     Estimated static dynamical RAM per process >     111.47 MB

     Estimated max dynamical RAM per process >     168.24 MB

     Estimated total dynamical RAM >      14.79 GB

     Atomic positions and unit cell read from directory:
     ../out/alloy_100.save/
     Message from routine qexsd_readschema :
     xml data file ../out/alloy_100.save/data-file-schema.xml not found
     Nothing found: using input atomic positions and unit cell

     Generating pointlists ...
     new r_m :   0.2045 (alat units)  2.1974 (a.u.) for type    1
     new r_m :   0.2054 (alat units)  2.2069 (a.u.) for type    2
     Cannot read rho : file not found

     Initial potential from superposition of free atoms

     starting charge     375.9925, renormalised to     376.0000

     negative rho (up, down):  5.058E-06 4.030E-06
     Message from routine qexsd_readschema :
     xml data file ../out/alloy_100.save/data-file-schema.xml not found
     Cannot read wfcs: file not found
     Starting wfcs are  200 randomized atomic wfcs +   26 random wfcs

     total cpu time spent up to now is       18.5 secs

     Self-consistent Calculation

     iteration #  1     ecut=    98.00 Ry     beta= 0.70
     Davidson diagonalization with overlap

---- Real-time Memory Report at c_bands before calling an iterative solver
           200 MiB given to the printing process from OS
             0 MiB allocation reported by mallinfo(arena+hblkhd)
        360543 MiB available memory on the node where the printing process lives
------------------
     c_bands:  1 eigenvalues not converged
     c_bands:  1 eigenvalues not converged
     c_bands:  1 eigenvalues not converged
     c_bands:  1 eigenvalues not converged
     ethr =  1.00E-05,  avg # of iterations = 19.0

     negative rho (up, down):  2.302E-08 2.288E-08

     total cpu time spent up to now is      110.1 secs

     total energy              =   -6296.18185460 Ry
     estimated scf accuracy    <      17.73548121 Ry

     total magnetization       =     3.04 Bohr mag/cell
     absolute magnetization    =     4.81 Bohr mag/cell

     iteration #  2     ecut=    98.00 Ry     beta= 0.70
     Davidson diagonalization with overlap

---- Real-time Memory Report at c_bands before calling an iterative solver
           224 MiB given to the printing process from OS
             0 MiB allocation reported by mallinfo(arena+hblkhd)
        358705 MiB available memory on the node where the printing process lives
------------------
     ethr =  4.72E-03,  avg # of iterations =  1.6

     total cpu time spent up to now is      135.8 secs

     total energy              =   -6296.61009742 Ry
     estimated scf accuracy    <       4.50772655 Ry

     total magnetization       =     6.62 Bohr mag/cell
     absolute magnetization    =     8.02 Bohr mag/cell

     iteration #  3     ecut=    98.00 Ry     beta= 0.70
     Davidson diagonalization with overlap

---- Real-time Memory Report at c_bands before calling an iterative solver
           228 MiB given to the printing process from OS
             0 MiB allocation reported by mallinfo(arena+hblkhd)
        358346 MiB available memory on the node where the printing process lives
------------------
     ethr =  1.20E-03,  avg # of iterations =  2.0

     total cpu time spent up to now is      163.2 secs

     total energy              =   -6297.30145254 Ry
     estimated scf accuracy    <       6.23349964 Ry

     total magnetization       =     1.17 Bohr mag/cell
     absolute magnetization    =     2.06 Bohr mag/cell

     iteration #  4     ecut=    98.00 Ry     beta= 0.70
     Davidson diagonalization with overlap

---- Real-time Memory Report at c_bands before calling an iterative solver
           229 MiB given to the printing process from OS
             0 MiB allocation reported by mallinfo(arena+hblkhd)
        358307 MiB available memory on the node where the printing process lives
------------------
     ethr =  1.20E-03,  avg # of iterations =  1.2

     total cpu time spent up to now is      186.6 secs

     total energy              =   -6297.28608421 Ry
     estimated scf accuracy    <       2.25119118 Ry

     total magnetization       =     0.61 Bohr mag/cell
     absolute magnetization    =     1.60 Bohr mag/cell

     iteration #  5     ecut=    98.00 Ry     beta= 0.70
     Davidson diagonalization with overlap

---- Real-time Memory Report at c_bands before calling an iterative solver
           229 MiB given to the printing process from OS
             0 MiB allocation reported by mallinfo(arena+hblkhd)
        358280 MiB available memory on the node where the printing process lives
------------------
     ethr =  5.99E-04,  avg # of iterations =  1.8

     total cpu time spent up to now is      211.1 secs

     total energy              =   -6297.32376841 Ry
     estimated scf accuracy    <       0.11119566 Ry

     total magnetization       =     1.76 Bohr mag/cell
     absolute magnetization    =     2.38 Bohr mag/cell

     iteration #  6     ecut=    98.00 Ry     beta= 0.70
     Davidson diagonalization with overlap

---- Real-time Memory Report at c_bands before calling an iterative solver
           229 MiB given to the printing process from OS
             0 MiB allocation reported by mallinfo(arena+hblkhd)
        358258 MiB available memory on the node where the printing process lives
------------------
     ethr =  2.96E-05,  avg # of iterations = 10.1

     total cpu time spent up to now is      245.1 secs

     total energy              =   -6297.30767072 Ry
     estimated scf accuracy    <       0.24847670 Ry

     total magnetization       =     1.42 Bohr mag/cell
     absolute magnetization    =     1.89 Bohr mag/cell

     iteration #  7     ecut=    98.00 Ry     beta= 0.70
     Davidson diagonalization with overlap

---- Real-time Memory Report at c_bands before calling an iterative solver
           232 MiB given to the printing process from OS
             0 MiB allocation reported by mallinfo(arena+hblkhd)
        358209 MiB available memory on the node where the printing process lives
------------------
     ethr =  2.96E-05,  avg # of iterations =  2.3

     total cpu time spent up to now is      272.4 secs

     total energy              =   -6297.32442862 Ry
     estimated scf accuracy    <       0.18091159 Ry

     total magnetization       =     2.71 Bohr mag/cell
     absolute magnetization    =     3.03 Bohr mag/cell

     iteration #  8     ecut=    98.00 Ry     beta= 0.70
     Davidson diagonalization with overlap

---- Real-time Memory Report at c_bands before calling an iterative solver
           232 MiB given to the printing process from OS
             0 MiB allocation reported by mallinfo(arena+hblkhd)
        358151 MiB available memory on the node where the printing process lives
------------------
     ethr =  2.96E-05,  avg # of iterations =  1.0

     total cpu time spent up to now is      295.1 secs

     total energy              =   -6297.32010898 Ry
     estimated scf accuracy    <       0.12850367 Ry

     total magnetization       =     2.63 Bohr mag/cell
     absolute magnetization    =     2.98 Bohr mag/cell

     iteration #  9     ecut=    98.00 Ry     beta= 0.70
     Davidson diagonalization with overlap

---- Real-time Memory Report at c_bands before calling an iterative solver
           232 MiB given to the printing process from OS
             0 MiB allocation reported by mallinfo(arena+hblkhd)
        358089 MiB available memory on the node where the printing process lives
------------------
     ethr =  2.96E-05,  avg # of iterations =  1.6

     total cpu time spent up to now is      325.3 secs

     total energy              =   -6297.32116076 Ry
     estimated scf accuracy    <       0.00788382 Ry

     total magnetization       =     2.25 Bohr mag/cell
     absolute magnetization    =     2.63 Bohr mag/cell

     iteration # 10     ecut=    98.00 Ry     beta= 0.70
     Davidson diagonalization with overlap

---- Real-time Memory Report at c_bands before calling an iterative solver
           234 MiB given to the printing process from OS
             0 MiB allocation reported by mallinfo(arena+hblkhd)
        358032 MiB available memory on the node where the printing process lives
------------------
     ethr =  2.10E-06,  avg # of iterations =  8.8

     negative rho (up, down):  1.762E-03 1.757E-03

     total cpu time spent up to now is      361.9 secs

     total energy              =   -6297.32140358 Ry
     estimated scf accuracy    <       0.00454332 Ry

     total magnetization       =     2.06 Bohr mag/cell
     absolute magnetization    =     2.46 Bohr mag/cell

     iteration # 11     ecut=    98.00 Ry     beta= 0.70
     Davidson diagonalization with overlap

---- Real-time Memory Report at c_bands before calling an iterative solver
           235 MiB given to the printing process from OS
             0 MiB allocation reported by mallinfo(arena+hblkhd)
        357971 MiB available memory on the node where the printing process lives
------------------
     ethr =  1.21E-06,  avg # of iterations =  7.2

     negative rho (up, down):  3.338E-03 3.334E-03

     total cpu time spent up to now is      395.6 secs

     total energy              =   -6297.32134501 Ry
     estimated scf accuracy    <       0.00147758 Ry

     total magnetization       =     2.09 Bohr mag/cell
     absolute magnetization    =     2.50 Bohr mag/cell

     iteration # 12     ecut=    98.00 Ry     beta= 0.70
     Davidson diagonalization with overlap

---- Real-time Memory Report at c_bands before calling an iterative solver
           235 MiB given to the printing process from OS
             0 MiB allocation reported by mallinfo(arena+hblkhd)
        357968 MiB available memory on the node where the printing process lives
------------------
     ethr =  3.93E-07,  avg # of iterations =  6.6

     negative rho (up, down):  4.034E-03 4.029E-03

     total cpu time spent up to now is      428.3 secs

     total energy              =   -6297.32133664 Ry
     estimated scf accuracy    <       0.00043305 Ry

     total magnetization       =     2.14 Bohr mag/cell
     absolute magnetization    =     2.54 Bohr mag/cell

     iteration # 13     ecut=    98.00 Ry     beta= 0.70
     Davidson diagonalization with overlap

---- Real-time Memory Report at c_bands before calling an iterative solver
           236 MiB given to the printing process from OS
             0 MiB allocation reported by mallinfo(arena+hblkhd)
        357966 MiB available memory on the node where the printing process lives
------------------
     ethr =  1.15E-07,  avg # of iterations =  7.3

     negative rho (up, down):  2.995E-03 2.992E-03

     total cpu time spent up to now is      466.5 secs

     total energy              =   -6297.32133488 Ry
     estimated scf accuracy    <       0.00017163 Ry

     total magnetization       =     2.15 Bohr mag/cell
     absolute magnetization    =     2.56 Bohr mag/cell

     iteration # 14     ecut=    98.00 Ry     beta= 0.70
     Davidson diagonalization with overlap

---- Real-time Memory Report at c_bands before calling an iterative solver
           236 MiB given to the printing process from OS
             0 MiB allocation reported by mallinfo(arena+hblkhd)
        357964 MiB available memory on the node where the printing process lives
------------------
     ethr =  4.56E-08,  avg # of iterations =  3.8

     negative rho (up, down):  1.265E-03 1.264E-03

     total cpu time spent up to now is      496.9 secs

     total energy              =   -6297.32133156 Ry
     estimated scf accuracy    <       0.00008318 Ry

     total magnetization       =     2.15 Bohr mag/cell
     absolute magnetization    =     2.55 Bohr mag/cell

     iteration # 15     ecut=    98.00 Ry     beta= 0.70
     Davidson diagonalization with overlap

---- Real-time Memory Report at c_bands before calling an iterative solver
           236 MiB given to the printing process from OS
             0 MiB allocation reported by mallinfo(arena+hblkhd)
        357961 MiB available memory on the node where the printing process lives
------------------
     ethr =  2.21E-08,  avg # of iterations =  5.9
 
     Magnetic moment per site  (integrated on atomic sphere of radius R)
     atom   1 (R=0.205)  charge= 17.5220  magn=  0.0027
     atom   2 (R=0.205)  charge= 17.5220  magn=  0.0027
     atom   3 (R=0.205)  charge= 17.5220  magn=  0.0027
     atom   4 (R=0.205)  charge= 17.5220  magn=  0.0027
     atom   5 (R=0.205)  charge= 17.5708  magn= -0.0003
     atom   6 (R=0.205)  charge= 17.5708  magn= -0.0003
     atom   7 (R=0.205)  charge= 17.5708  magn= -0.0003
     atom   8 (R=0.205)  charge= 17.5708  magn= -0.0003
     atom   9 (R=0.205)  charge= 17.5274  magn= -0.0033
     atom  10 (R=0.205)  charge= 17.5274  magn= -0.0033
     atom  11 (R=0.205)  charge= 17.5274  magn= -0.0033
     atom  12 (R=0.205)  charge= 17.5274  magn= -0.0033
     atom  13 (R=0.205)  charge= 17.0569  magn=  0.5690
     atom  14 (R=0.205)  charge= 17.0569  magn=  0.5690
     atom  15 (R=0.205)  charge= 17.0569  magn=  0.5690
     atom  16 (R=0.205)  charge= 17.0569  magn=  0.5690
     atom  17 (R=0.205)  charge= 17.4772  magn= -0.0023
     atom  18 (R=0.205)  charge= 17.4772  magn= -0.0023
     atom  19 (R=0.205)  charge= 17.4772  magn= -0.0023
     atom  20 (R=0.205)  charge= 17.4772  magn= -0.0023

     total cpu time spent up to now is      527.2 secs

     End of self-consistent calculation

 ------ SPIN UP ------------


          k = 0.0000 0.0000 0.0000 (135767 PWs)   bands (ev):

  -101.2032-101.2016-101.2016-101.1999 -90.8233 -90.8155 -90.8155 -90.8082
   -90.5738 -90.5666 -90.5666 -90.5594 -90.5189 -90.5117 -90.5117 -90.5044
   -90.1817 -90.1743 -90.1743 -90.1670 -61.8178 -61.8178 -61.8156 -61.8156
   -61.7931 -61.7931 -61.7913 -61.7913 -61.6350 -61.6329 -61.6329 -61.6307
   -54.3895 -54.3895 -54.3762 -54.3762 -54.3335 -54.3232 -54.3232 -54.2994
   -54.2782 -54.2782 -54.2673 -54.2673 -54.1155 -54.1155 -54.1086 -54.1086
   -54.0743 -54.0743 -54.0703 -54.0703 -54.0574 -54.0503 -54.0503 -54.0449
   -54.0156 -54.0156 -54.0086 -54.0086 -54.0070 -54.0020 -54.0020 -53.9985
   -53.9773 -53.9773 -53.9707 -53.9707 -53.7446 -53.7446 -53.7348 -53.7348
   -53.6607 -53.6515 -53.6515 -53.6427 -53.6406 -53.6406 -53.6325 -53.6325
    -6.3024  -5.2614  -5.1940  -5.0781  -5.0610  -5.0610  -5.0215  -4.9980
    -4.9980  -4.9472  -4.8993  -4.8993  -4.5074  -4.4189  -4.3449  -4.0583
    -4.0583  -4.0133  -4.0133  -4.0121  -3.9804  -3.8613  -3.8090  -3.8090
    -3.7990  -3.6758  -3.6758  -3.6545  -3.6545  -3.6016  -3.6016  -3.5213
    -3.5213  -3.4473  -3.4473  -3.3559  -3.3559  -3.3542  -3.3542  -3.1937
    -3.1937  -3.1825  -3.1825  -2.7441  -2.7441  -2.7021  -2.6795  -2.5049
    -2.5049  -2.4718  -2.4718  -2.3995  -2.3995  -2.3979  -2.3720  -2.3720
    -2.3162  -2.3162  -2.2958  -2.2411  -2.2411  -2.1741  -2.0611  -2.0592
    -2.0592  -2.0019  -2.0019  -1.9416  -1.9416  -1.9236  -1.9236  -1.9213
    -1.8877  -1.8301  -1.8301  -1.7329  -1.7329  -1.7262  -1.5576  -1.5269
    -1.2514  -1.2419  -0.8974  -0.8659  -0.7486  -0.7486  -0.7175  -0.4970
    -0.3955  -0.3955  -0.2329  -0.2329  -0.0137  -0.0137   0.0473   0.2319
     0.2319   0.4652   0.4652   0.5037   0.5037   0.5493   0.5535   0.8030
     0.8030   0.8583   1.1345   1.1345   1.2430   1.2430   1.3233   1.3233
     1.4847   1.8343   1.8343   2.6879   3.5973   3.5973   4.2016   4.2016
     4.5405   4.5405   5.0773   5.0773   5.1660   5.3372   5.4637   5.8742
     5.9746   5.9746   6.1327   6.6952   6.6952   6.7802   7.0232   7.0232
     7.2391   7.8309   7.9352   7.9352   8.1040   8.2229   8.4434   8.5596
     8.6418   8.9402

     occupation numbers 
     1.0000   1.0000   1.0000   1.0000   1.0000   1.0000   1.0000   1.0000
     1.0000   1.0000   1.0000   1.0000   1.0000   1.0000   1.0000   1.0000
     1.0000   1.0000   1.0000   1.0000   1.0000   1.0000   1.0000   1.0000
     1.0000   1.0000   1.0000   1.0000   1.0000   1.0000   1.0000   1.0000
     1.0000   1.0000   1.0000   1.0000   1.0000   1.0000   1.0000   1.0000
     1.0000   1.0000   1.0000   1.0000   1.0000   1.0000   1.0000   1.0000
     1.0000   1.0000   1.0000   1.0000   1.0000   1.0000   1.0000   1.0000
     1.0000   1.0000   1.0000   1.0000   1.0000   1.0000   1.0000   1.0000
     1.0000   1.0000   1.0000   1.0000   1.0000   1.0000   1.0000   1.0000
     1.0000   1.0000   1.0000   1.0000   1.0000   1.0000   1.0000   1.0000
     1.0000   1.0000   1.0000   1.0000   1.0000   1.0000   1.0000   1.0000
     1.0000   1.0000   1.0000   1.0000   1.0000   1.0000   1.0000   1.0000
     1.0000   1.0000   1.0000   1.0000   1.0000   1.0000   1.0000   1.0000
     1.0000   1.0000   1.0000   1.0000   1.0000   1.0000   1.0000   1.0000
     1.0000   1.0000   1.0000   1.0000   1.0000   1.0000   1.0000   1.0000
     1.0000   1.0000   1.0000   1.0000   1.0000   1.0000   1.0000   1.0000
     1.0000   1.0000   1.0000   1.0000   1.0000   1.0000   1.0000   1.0000
     1.0000   1.0000   1.0000   1.0000   1.0000   1.0000   1.0000   1.0000
     1.0000   1.0000   1.0000   1.0000   1.0000   1.0000   1.0000   1.0000
     1.0000   1.0000   1.0000   1.0000   1.0000   1.0000   1.0000   1.0000
     1.0000   1.0000   1.0000   1.0000   1.0000   1.0000   1.0000   1.0000
     1.0000   1.0000   1.0000   1.0000   1.0000   1.0000   1.0000   1.0007
     1.0007   1.0149   1.0149   1.0218   1.0218   1.0324   1.0335   1.0767
     1.0767   1.0469   0.5092   0.5092   0.2690   0.2690   0.1444   0.1444
     0.0277   0.0001   0.0001   0.0000   0.0000   0.0000   0.0000   0.0000
     0.0000   0.0000   0.0000   0.0000   0.0000   0.0000   0.0000   0.0000
     0.0000   0.0000   0.0000   0.0000   0.0000   0.0000   0.0000   0.0000
     0.0000   0.0000   0.0000   0.0000   0.0000   0.0000   0.0000   0.0000
     0.0000   0.0000

          k = 0.0000 0.2500 0.0000 (135906 PWs)   bands (ev):

  -101.2030-101.2018-101.2013-101.2002 -90.8222 -90.8167 -90.8144 -90.8093
   -90.5728 -90.5677 -90.5656 -90.5604 -90.5178 -90.5128 -90.5106 -90.5054
   -90.1806 -90.1754 -90.1732 -90.1681 -61.8174 -61.8159 -61.8142 -61.8120
   -61.7967 -61.7948 -61.7929 -61.7915 -61.6347 -61.6332 -61.6326 -61.6310
   -54.3874 -54.3779 -54.3737 -54.3606 -54.3314 -54.3239 -54.3198 -54.3030
   -54.2951 -54.2838 -54.2766 -54.2689 -54.1139 -54.1091 -54.1012 -54.0941
   -54.0737 -54.0710 -54.0622 -54.0562 -54.0558 -54.0495 -54.0495 -54.0454
   -54.0308 -54.0234 -54.0146 -54.0096 -54.0061 -54.0027 -54.0015 -53.9990
   -53.9919 -53.9854 -53.9764 -53.9717 -53.7432 -53.7362 -53.7294 -53.7199
   -53.6593 -53.6559 -53.6529 -53.6502 -53.6475 -53.6440 -53.6394 -53.6337
    -5.9915  -5.0778  -5.0579  -5.0267  -4.9099  -4.9018  -4.8818  -4.8416
    -4.8400  -4.8123  -4.8054  -4.7772  -4.3723  -4.3142  -4.2395  -4.1290
    -4.1201  -3.9944  -3.9393  -3.8701  -3.8651  -3.8560  -3.7852  -3.7681
    -3.7300  -3.7222  -3.7102  -3.6389  -3.5772  -3.5560  -3.5323  -3.4375
    -3.4294  -3.4250  -3.3516  -3.3433  -3.3301  -3.3214  -3.3067  -3.3064
    -3.2279  -3.0867  -3.0431  -2.9588  -2.8571  -2.7768  -2.7284  -2.7277
    -2.7147  -2.6307  -2.5859  -2.5472  -2.4759  -2.4286  -2.3881  -2.3766
    -2.3720  -2.3163  -2.2779  -2.2668  -2.2663  -2.2614  -2.2418  -2.2313
    -2.1926  -2.1414  -2.1332  -2.1174  -2.0373  -2.0244  -2.0051  -1.9629
    -1.8655  -1.8331  -1.8077  -1.8074  -1.7722  -1.7708  -1.6913  -1.6614
    -1.6594  -1.5009  -1.4649  -1.3305  -1.2015  -0.7581  -0.6276  -0.5818
    -0.4836  -0.4748  -0.4032  -0.2768  -0.0376  -0.0214   0.0141   0.0213
     0.0867   0.2740   0.2901   0.3713   0.4755   0.4776   0.4843   0.5012
     0.5036   0.5115   0.6567   1.2219   1.4755   1.7818   1.9384   1.9908
     2.2320   2.3070   2.9679   2.9713   3.3422   3.6596   4.1590   4.2127
     4.3955   4.7437   4.8231   4.9481   5.4570   5.6339   5.7314   5.7517
     5.9013   6.1210   6.1766   6.4154   6.6216   6.6991   6.9463   7.0791
     7.3125   7.5117   7.6710   7.7735   7.9372   8.0379   8.1136   8.2280
     8.3973   8.6633

     occupation numbers 
     1.0000   1.0000   1.0000   1.0000   1.0000   1.0000   1.0000   1.0000
     1.0000   1.0000   1.0000   1.0000   1.0000   1.0000   1.0000   1.0000
     1.0000   1.0000   1.0000   1.0000   1.0000   1.0000   1.0000   1.0000
     1.0000   1.0000   1.0000   1.0000   1.0000   1.0000   1.0000   1.0000
     1.0000   1.0000   1.0000   1.0000   1.0000   1.0000   1.0000   1.0000
     1.0000   1.0000   1.0000   1.0000   1.0000   1.0000   1.0000   1.0000
     1.0000   1.0000   1.0000   1.0000   1.0000   1.0000   1.0000   1.0000
     1.0000   1.0000   1.0000   1.0000   1.0000   1.0000   1.0000   1.0000
     1.0000   1.0000   1.0000   1.0000   1.0000   1.0000   1.0000   1.0000
     1.0000   1.0000   1.0000   1.0000   1.0000   1.0000   1.0000   1.0000
     1.0000   1.0000   1.0000   1.0000   1.0000   1.0000   1.0000   1.0000
     1.0000   1.0000   1.0000   1.0000   1.0000   1.0000   1.0000   1.0000
     1.0000   1.0000   1.0000   1.0000   1.0000   1.0000   1.0000   1.0000
     1.0000   1.0000   1.0000   1.0000   1.0000   1.0000   1.0000   1.0000
     1.0000   1.0000   1.0000   1.0000   1.0000   1.0000   1.0000   1.0000
     1.0000   1.0000   1.0000   1.0000   1.0000   1.0000   1.0000   1.0000
     1.0000   1.0000   1.0000   1.0000   1.0000   1.0000   1.0000   1.0000
     1.0000   1.0000   1.0000   1.0000   1.0000   1.0000   1.0000   1.0000
     1.0000   1.0000   1.0000   1.0000   1.0000   1.0000   1.0000   1.0000
     1.0000   1.0000   1.0000   1.0000   1.0000   1.0000   1.0000   1.0000
     1.0000   1.0000   1.0000   1.0000   1.0000   1.0000   1.0000   1.0000
     1.0000   1.0000   1.0000   1.0000   1.0000   1.0000   1.0000   1.0000
     1.0001   1.0013   1.0017   1.0051   1.0166   1.0169   1.0181   1.0213
     1.0218   1.0234   1.0645   0.3099   0.0309   0.0003   0.0000   0.0000
     0.0000   0.0000   0.0000   0.0000   0.0000   0.0000   0.0000   0.0000
     0.0000   0.0000   0.0000   0.0000   0.0000   0.0000   0.0000   0.0000
     0.0000   0.0000   0.0000   0.0000   0.0000   0.0000   0.0000   0.0000
     0.0000   0.0000   0.0000   0.0000   0.0000   0.0000   0.0000   0.0000
     0.0000   0.0000

          k = 0.0000-0.5000 0.0000 (135922 PWs)   bands (ev):

  -101.2024-101.2024-101.2007-101.2007 -90.8194 -90.8194 -90.8119 -90.8119
   -90.5702 -90.5702 -90.5630 -90.5630 -90.5153 -90.5153 -90.5080 -90.5080
   -90.1780 -90.1780 -90.1706 -90.1706 -61.8167 -61.8167 -61.8055 -61.8055
   -61.8034 -61.8034 -61.7922 -61.7922 -61.6339 -61.6339 -61.6318 -61.6318
   -54.3824 -54.3824 -54.3349 -54.3349 -54.3269 -54.3269 -54.3227 -54.3227
   -54.3115 -54.3115 -54.2727 -54.2727 -54.1109 -54.1109 -54.0724 -54.0724
   -54.0664 -54.0664 -54.0590 -54.0590 -54.0533 -54.0533 -54.0475 -54.0475
   -54.0266 -54.0266 -54.0210 -54.0210 -54.0121 -54.0121 -54.0042 -54.0042
   -54.0001 -54.0001 -53.9740 -53.9740 -53.7397 -53.7397 -53.6927 -53.6927
   -53.6838 -53.6838 -53.6561 -53.6561 -53.6471 -53.6471 -53.6365 -53.6365
    -5.3109  -5.3109  -4.8170  -4.8170  -4.7728  -4.7728  -4.7092  -4.7092
    -4.5652  -4.5652  -4.5275  -4.5275  -4.4774  -4.4774  -4.2864  -4.2864
    -4.0987  -4.0987  -4.0745  -4.0745  -3.7861  -3.7861  -3.7521  -3.7521
    -3.6092  -3.6092  -3.4684  -3.4684  -3.3983  -3.3983  -3.2711  -3.2711
    -3.2529  -3.2529  -3.1703  -3.1703  -3.1657  -3.1657  -3.0910  -3.0910
    -3.0665  -3.0665  -2.9373  -2.9373  -2.9058  -2.9058  -2.8583  -2.8583
    -2.8507  -2.8507  -2.8459  -2.8459  -2.7633  -2.7633  -2.6931  -2.6931
    -2.5554  -2.5554  -2.5143  -2.5143  -2.3874  -2.3874  -2.3659  -2.3659
    -2.3596  -2.3596  -2.2792  -2.2792  -2.1688  -2.1688  -2.0203  -2.0203
    -1.9749  -1.9749  -1.9662  -1.9662  -1.9349  -1.9349  -1.9119  -1.9119
    -1.6854  -1.6854  -1.6552  -1.6552  -1.4821  -1.4821  -0.4956  -0.4956
    -0.3287  -0.3287  -0.1398  -0.1398  -0.1105  -0.1105   0.0376   0.0376
     0.1109   0.1109   0.1131   0.1131   0.3820   0.3820   0.3857   0.3857
     0.4968   0.4968   1.1755   1.1755   2.0240   2.0240   2.0898   2.0898
     2.8804   2.8804   2.9751   2.9751   3.1350   3.1350   3.8384   3.8384
     4.7861   4.7861   4.9339   4.9339   5.7292   5.7292   6.3286   6.3286
     6.5217   6.5217   6.6117   6.6117   6.6481   6.6481   7.0811   7.0811
     7.1028   7.1028   7.2589   7.2589   7.7464   7.7464   7.9594   7.9594
     8.1438   8.1438

     occupation numbers 
     1.0000   1.0000   1.0000   1.0000   1.0000   1.0000   1.0000   1.0000
     1.0000   1.0000   1.0000   1.0000   1.0000   1.0000   1.0000   1.0000
     1.0000   1.0000   1.0000   1.0000   1.0000   1.0000   1.0000   1.0000
     1.0000   1.0000   1.0000   1.0000   1.0000   1.0000   1.0000   1.0000
     1.0000   1.0000   1.0000   1.0000   1.0000   1.0000   1.0000   1.0000
     1.0000   1.0000   1.0000   1.0000   1.0000   1.0000   1.0000   1.0000
     1.0000   1.0000   1.0000   1.0000   1.0000   1.0000   1.0000   1.0000
     1.0000   1.0000   1.0000   1.0000   1.0000   1.0000   1.0000   1.0000
     1.0000   1.0000   1.0000   1.0000   1.0000   1.0000   1.0000   1.0000
     1.0000   1.0000   1.0000   1.0000   1.0000   1.0000   1.0000   1.0000
     1.0000   1.0000   1.0000   1.0000   1.0000   1.0000   1.0000   1.0000
     1.0000   1.0000   1.0000   1.0000   1.0000   1.0000   1.0000   1.0000
     1.0000   1.0000   1.0000   1.0000   1.0000   1.0000   1.0000   1.0000
     1.0000   1.0000   1.0000   1.0000   1.0000   1.0000   1.0000   1.0000
     1.0000   1.0000   1.0000   1.0000   1.0000   1.0000   1.0000   1.0000
     1.0000   1.0000   1.0000   1.0000   1.0000   1.0000   1.0000   1.0000
     1.0000   1.0000   1.0000   1.0000   1.0000   1.0000   1.0000   1.0000
     1.0000   1.0000   1.0000   1.0000   1.0000   1.0000   1.0000   1.0000
     1.0000   1.0000   1.0000   1.0000   1.0000   1.0000   1.0000   1.0000
     1.0000   1.0000   1.0000   1.0000   1.0000   1.0000   1.0000   1.0000
     1.0000   1.0000   1.0000   1.0000   1.0000   1.0000   1.0000   1.0000
     1.0000   1.0000   1.0000   1.0000   1.0000   1.0000   1.0000   1.0000
     1.0001   1.0001   1.0001   1.0001   1.0058   1.0058   1.0061   1.0061
     1.0204   1.0204   0.4108   0.4108   0.0000   0.0000   0.0000   0.0000
     0.0000   0.0000   0.0000   0.0000   0.0000   0.0000   0.0000   0.0000
     0.0000   0.0000   0.0000   0.0000   0.0000   0.0000   0.0000   0.0000
     0.0000   0.0000   0.0000   0.0000   0.0000   0.0000   0.0000   0.0000
     0.0000   0.0000   0.0000   0.0000   0.0000   0.0000   0.0000   0.0000
     0.0000   0.0000

          k = 0.2500 0.2500 0.0000 (135950 PWs)   bands (ev):

  -101.2027-101.2016-101.2016-101.2004 -90.8211 -90.8156 -90.8156 -90.8103
   -90.5717 -90.5666 -90.5666 -90.5615 -90.5168 -90.5117 -90.5117 -90.5065
   -90.1795 -90.1743 -90.1743 -90.1691 -61.8138 -61.8138 -61.8124 -61.8123
   -61.7965 -61.7964 -61.7951 -61.7951 -61.6344 -61.6329 -61.6329 -61.6314
   -54.3716 -54.3716 -54.3628 -54.3618 -54.3292 -54.3208 -54.3208 -54.3060
   -54.2942 -54.2925 -54.2853 -54.2853 -54.0997 -54.0997 -54.0950 -54.0946
   -54.0611 -54.0611 -54.0568 -54.0567 -54.0544 -54.0492 -54.0492 -54.0462
   -54.0300 -54.0293 -54.0243 -54.0243 -54.0054 -54.0022 -54.0022 -53.9995
   -53.9910 -53.9908 -53.9864 -53.9864 -53.7280 -53.7280 -53.7215 -53.7210
   -53.6580 -53.6549 -53.6544 -53.6516 -53.6516 -53.6487 -53.6487 -53.6453
    -5.6829  -4.8804  -4.8179  -4.8179  -4.8164  -4.7803  -4.7684  -4.7684
    -4.7202  -4.7079  -4.6740  -4.6054  -4.1659  -4.1445  -4.1445  -4.0840
    -4.0454  -4.0454  -4.0377  -3.9150  -3.9150  -3.7488  -3.6860  -3.6461
    -3.6381  -3.6269  -3.5733  -3.5686  -3.5686  -3.5097  -3.5097  -3.4944
    -3.4944  -3.4761  -3.3846  -3.3846  -3.3654  -3.2056  -3.2056  -3.1343
    -3.1294  -3.1294  -3.0409  -2.9959  -2.9959  -2.9891  -2.8203  -2.7755
    -2.7215  -2.7215  -2.6706  -2.6020  -2.6020  -2.5638  -2.4893  -2.4893
    -2.4529  -2.4205  -2.3879  -2.3879  -2.3081  -2.2901  -2.2789  -2.2789
    -2.2426  -2.2343  -2.2113  -2.1896  -2.1882  -2.1559  -2.1559  -2.0672
    -2.0672  -2.0278  -1.9777  -1.8523  -1.8523  -1.8220  -1.8206  -1.7701
    -1.6432  -1.6191  -1.5515  -1.2682  -1.2682  -0.8587  -0.8587  -0.5430
    -0.5227  -0.4884  -0.4884  -0.3728  -0.3201  -0.2425  -0.2425   0.1526
     0.1526   0.1568   0.1602   0.3248   0.3248   0.4238   0.4272   0.4308
     0.5197   0.5341   0.5341   0.7804   0.9749   1.0918   1.0918   2.1481
     2.4361   2.7279   2.7279   3.6753   3.8812   4.0538   4.0538   4.9912
     5.0349   5.0349   5.2105   5.2105   5.4182   5.7478   5.9305   6.0390
     6.2536   6.4794   6.6968   6.8628   6.8628   6.9627   6.9627   7.3298
     7.3785   7.7824   8.0623   8.0623   8.1148   8.2242   8.2242   8.3189
     8.3189   8.3776

     occupation numbers 
     1.0000   1.0000   1.0000   1.0000   1.0000   1.0000   1.0000   1.0000
     1.0000   1.0000   1.0000   1.0000   1.0000   1.0000   1.0000   1.0000
     1.0000   1.0000   1.0000   1.0000   1.0000   1.0000   1.0000   1.0000
     1.0000   1.0000   1.0000   1.0000   1.0000   1.0000   1.0000   1.0000
     1.0000   1.0000   1.0000   1.0000   1.0000   1.0000   1.0000   1.0000
     1.0000   1.0000   1.0000   1.0000   1.0000   1.0000   1.0000   1.0000
     1.0000   1.0000   1.0000   1.0000   1.0000   1.0000   1.0000   1.0000
     1.0000   1.0000   1.0000   1.0000   1.0000   1.0000   1.0000   1.0000
     1.0000   1.0000   1.0000   1.0000   1.0000   1.0000   1.0000   1.0000
     1.0000   1.0000   1.0000   1.0000   1.0000   1.0000   1.0000   1.0000
     1.0000   1.0000   1.0000   1.0000   1.0000   1.0000   1.0000   1.0000
     1.0000   1.0000   1.0000   1.0000   1.0000   1.0000   1.0000   1.0000
     1.0000   1.0000   1.0000   1.0000   1.0000   1.0000   1.0000   1.0000
     1.0000   1.0000   1.0000   1.0000   1.0000   1.0000   1.0000   1.0000
     1.0000   1.0000   1.0000   1.0000   1.0000   1.0000   1.0000   1.0000
     1.0000   1.0000   1.0000   1.0000   1.0000   1.0000   1.0000   1.0000
     1.0000   1.0000   1.0000   1.0000   1.0000   1.0000   1.0000   1.0000
     1.0000   1.0000   1.0000   1.0000   1.0000   1.0000   1.0000   1.0000
     1.0000   1.0000   1.0000   1.0000   1.0000   1.0000   1.0000   1.0000
     1.0000   1.0000   1.0000   1.0000   1.0000   1.0000   1.0000   1.0000
     1.0000   1.0000   1.0000   1.0000   1.0000   1.0000   1.0000   1.0000
     1.0000   1.0000   1.0000   1.0000   1.0000   1.0000   1.0000   1.0002
     1.0002   1.0002   1.0002   1.0027   1.0027   1.0095   1.0099   1.0103
     1.0252   1.0285   1.0285   1.0817   0.8862   0.6162   0.6162   0.0000
     0.0000   0.0000   0.0000   0.0000   0.0000   0.0000   0.0000   0.0000
     0.0000   0.0000   0.0000   0.0000   0.0000   0.0000   0.0000   0.0000
     0.0000   0.0000   0.0000   0.0000   0.0000   0.0000   0.0000   0.0000
     0.0000   0.0000   0.0000   0.0000   0.0000   0.0000   0.0000   0.0000
     0.0000   0.0000

          k = 0.2500-0.5000 0.0000 (135938 PWs)   bands (ev):

  -101.2022-101.2022-101.2010-101.2010 -90.8183 -90.8183 -90.8130 -90.8130
   -90.5692 -90.5692 -90.5641 -90.5641 -90.5142 -90.5142 -90.5091 -90.5091
   -90.1769 -90.1769 -90.1717 -90.1717 -61.8131 -61.8131 -61.8052 -61.8052
   -61.8037 -61.8037 -61.7958 -61.7958 -61.6336 -61.6336 -61.6321 -61.6321
   -54.3668 -54.3668 -54.3330 -54.3330 -54.3244 -54.3244 -54.3243 -54.3243
   -54.3134 -54.3134 -54.2893 -54.2893 -54.0969 -54.0969 -54.0652 -54.0652
   -54.0611 -54.0611 -54.0575 -54.0575 -54.0521 -54.0521 -54.0477 -54.0477
   -54.0282 -54.0282 -54.0246 -54.0246 -54.0219 -54.0219 -54.0037 -54.0037
   -54.0007 -54.0007 -53.9887 -53.9887 -53.7247 -53.7247 -53.6914 -53.6914
   -53.6851 -53.6851 -53.6548 -53.6548 -53.6517 -53.6517 -53.6484 -53.6484
    -5.0269  -5.0269  -4.6303  -4.6303  -4.5636  -4.5636  -4.5225  -4.5225
    -4.4988  -4.4988  -4.4360  -4.4360  -4.3691  -4.3691  -4.2589  -4.2589
    -4.0137  -4.0137  -3.9269  -3.9269  -3.6824  -3.6824  -3.6506  -3.6506
    -3.5842  -3.5842  -3.5098  -3.5098  -3.4390  -3.4390  -3.3325  -3.3325
    -3.3203  -3.3203  -3.2403  -3.2403  -3.1773  -3.1773  -3.1308  -3.1308
    -2.9929  -2.9929  -2.9672  -2.9672  -2.9313  -2.9313  -2.9130  -2.9130
    -2.8818  -2.8818  -2.8225  -2.8225  -2.7289  -2.7289  -2.6891  -2.6891
    -2.6290  -2.6290  -2.5685  -2.5685  -2.4873  -2.4873  -2.4505  -2.4505
    -2.4232  -2.4232  -2.2992  -2.2992  -2.2908  -2.2908  -2.2300  -2.2300
    -2.1987  -2.1987  -2.1064  -2.1064  -1.9976  -1.9976  -1.8840  -1.8840
    -1.7731  -1.7731  -1.7583  -1.7583  -1.1580  -1.1580  -0.8305  -0.8305
    -0.5794  -0.5794  -0.3542  -0.3542  -0.0906  -0.0906  -0.0280  -0.0280
     0.0856   0.0856   0.2316   0.2316   0.2666   0.2666   0.3194   0.3194
     0.4587   0.4587   0.4976   0.4976   0.8998   0.8998   1.5524   1.5524
     2.1738   2.1738   3.5139   3.5139   3.8826   3.8826   4.9134   4.9134
     5.1874   5.1874   5.8929   5.8929   5.9445   5.9445   6.6189   6.6189
     6.8168   6.8168   6.8974   6.8974   7.3835   7.3835   7.4420   7.4420
     7.5431   7.5431   7.5619   7.5619   7.8181   7.8181   8.2594   8.2594
     8.4611   8.4611

     occupation numbers 
     1.0000   1.0000   1.0000   1.0000   1.0000   1.0000   1.0000   1.0000
     1.0000   1.0000   1.0000   1.0000   1.0000   1.0000   1.0000   1.0000
     1.0000   1.0000   1.0000   1.0000   1.0000   1.0000   1.0000   1.0000
     1.0000   1.0000   1.0000   1.0000   1.0000   1.0000   1.0000   1.0000
     1.0000   1.0000   1.0000   1.0000   1.0000   1.0000   1.0000   1.0000
     1.0000   1.0000   1.0000   1.0000   1.0000   1.0000   1.0000   1.0000
     1.0000   1.0000   1.0000   1.0000   1.0000   1.0000   1.0000   1.0000
     1.0000   1.0000   1.0000   1.0000   1.0000   1.0000   1.0000   1.0000
     1.0000   1.0000   1.0000   1.0000   1.0000   1.0000   1.0000   1.0000
     1.0000   1.0000   1.0000   1.0000   1.0000   1.0000   1.0000   1.0000
     1.0000   1.0000   1.0000   1.0000   1.0000   1.0000   1.0000   1.0000
     1.0000   1.0000   1.0000   1.0000   1.0000   1.0000   1.0000   1.0000
     1.0000   1.0000   1.0000   1.0000   1.0000   1.0000   1.0000   1.0000
     1.0000   1.0000   1.0000   1.0000   1.0000   1.0000   1.0000   1.0000
     1.0000   1.0000   1.0000   1.0000   1.0000   1.0000   1.0000   1.0000
     1.0000   1.0000   1.0000   1.0000   1.0000   1.0000   1.0000   1.0000
     1.0000   1.0000   1.0000   1.0000   1.0000   1.0000   1.0000   1.0000
     1.0000   1.0000   1.0000   1.0000   1.0000   1.0000   1.0000   1.0000
     1.0000   1.0000   1.0000   1.0000   1.0000   1.0000   1.0000   1.0000
     1.0000   1.0000   1.0000   1.0000   1.0000   1.0000   1.0000   1.0000
     1.0000   1.0000   1.0000   1.0000   1.0000   1.0000   1.0000   1.0000
     1.0000   1.0000   1.0000   1.0000   1.0000   1.0000   1.0000   1.0000
     1.0001   1.0001   1.0007   1.0007   1.0012   1.0012   1.0025   1.0025
     1.0140   1.0140   1.0206   1.0206   1.0054   1.0054   0.0117   0.0117
     0.0000   0.0000   0.0000   0.0000   0.0000   0.0000   0.0000   0.0000
     0.0000   0.0000   0.0000   0.0000   0.0000   0.0000   0.0000   0.0000
     0.0000   0.0000   0.0000   0.0000   0.0000   0.0000   0.0000   0.0000
     0.0000   0.0000   0.0000   0.0000   0.0000   0.0000   0.0000   0.0000
     0.0000   0.0000

          k =-0.5000-0.5000 0.0000 (136072 PWs)   bands (ev):

  -101.2016-101.2016-101.2016-101.2016 -90.8156 -90.8156 -90.8156 -90.8156
   -90.5666 -90.5666 -90.5666 -90.5666 -90.5117 -90.5117 -90.5117 -90.5117
   -90.1743 -90.1743 -90.1743 -90.1743 -61.8045 -61.8045 -61.8045 -61.8045
   -61.8044 -61.8044 -61.8044 -61.8044 -61.6329 -61.6329 -61.6329 -61.6329
   -54.3297 -54.3297 -54.3297 -54.3297 -54.3272 -54.3272 -54.3272 -54.3272
   -54.3185 -54.3185 -54.3185 -54.3185 -54.0628 -54.0628 -54.0628 -54.0628
   -54.0622 -54.0622 -54.0622 -54.0622 -54.0495 -54.0495 -54.0495 -54.0495
   -54.0240 -54.0240 -54.0240 -54.0240 -54.0239 -54.0239 -54.0239 -54.0239
   -54.0020 -54.0020 -54.0020 -54.0020 -53.6887 -53.6887 -53.6887 -53.6887
   -53.6878 -53.6878 -53.6878 -53.6878 -53.6516 -53.6516 -53.6516 -53.6516
    -4.5484  -4.5484  -4.5484  -4.5484  -4.3128  -4.3128  -4.3128  -4.3128
    -4.3028  -4.3028  -4.3028  -4.3028  -4.1435  -4.1435  -4.1435  -4.1435
    -3.9949  -3.9949  -3.9949  -3.9949  -3.8503  -3.8503  -3.8503  -3.8503
    -3.4316  -3.4316  -3.4316  -3.4316  -3.3814  -3.3814  -3.3814  -3.3814
    -3.1816  -3.1816  -3.1816  -3.1816  -3.0278  -3.0278  -3.0278  -3.0278
    -2.9999  -2.9999  -2.9999  -2.9999  -2.8864  -2.8864  -2.8864  -2.8864
    -2.8732  -2.8732  -2.8732  -2.8732  -2.7590  -2.7590  -2.7590  -2.7590
    -2.5882  -2.5882  -2.5882  -2.5882  -2.5501  -2.5501  -2.5501  -2.5501
    -2.5412  -2.5412  -2.5412  -2.5412  -2.5162  -2.5162  -2.5162  -2.5162
    -2.4195  -2.4195  -2.4195  -2.4195  -1.9694  -1.9694  -1.9694  -1.9694
    -1.8220  -1.8220  -1.8220  -1.8220  -1.4070  -1.4070  -1.4070  -1.4070
    -0.6094  -0.6094  -0.6094  -0.6094  -0.0544  -0.0544  -0.0544  -0.0544
     0.1401   0.1401   0.1401   0.1401   0.2490   0.2490   0.2490   0.2490
     0.3193   0.3193   0.3193   0.3193   0.9999   0.9999   0.9999   0.9999
     2.4861   2.4861   2.4861   2.4861   4.5001   4.5001   4.5001   4.5001
     6.2684   6.2684   6.2684   6.2684   7.4870   7.4870   7.4870   7.4870
     7.6944   7.6944   7.6944   7.6944   7.7514   7.7514   7.7514   7.7514
     7.7640   7.7640   7.7640   7.7640   8.2836   8.2836   8.2836   8.2836
     8.3624   8.3624

     occupation numbers 
     1.0000   1.0000   1.0000   1.0000   1.0000   1.0000   1.0000   1.0000
     1.0000   1.0000   1.0000   1.0000   1.0000   1.0000   1.0000   1.0000
     1.0000   1.0000   1.0000   1.0000   1.0000   1.0000   1.0000   1.0000
     1.0000   1.0000   1.0000   1.0000   1.0000   1.0000   1.0000   1.0000
     1.0000   1.0000   1.0000   1.0000   1.0000   1.0000   1.0000   1.0000
     1.0000   1.0000   1.0000   1.0000   1.0000   1.0000   1.0000   1.0000
     1.0000   1.0000   1.0000   1.0000   1.0000   1.0000   1.0000   1.0000
     1.0000   1.0000   1.0000   1.0000   1.0000   1.0000   1.0000   1.0000
     1.0000   1.0000   1.0000   1.0000   1.0000   1.0000   1.0000   1.0000
     1.0000   1.0000   1.0000   1.0000   1.0000   1.0000   1.0000   1.0000
     1.0000   1.0000   1.0000   1.0000   1.0000   1.0000   1.0000   1.0000
     1.0000   1.0000   1.0000   1.0000   1.0000   1.0000   1.0000   1.0000
     1.0000   1.0000   1.0000   1.0000   1.0000   1.0000   1.0000   1.0000
     1.0000   1.0000   1.0000   1.0000   1.0000   1.0000   1.0000   1.0000
     1.0000   1.0000   1.0000   1.0000   1.0000   1.0000   1.0000   1.0000
     1.0000   1.0000   1.0000   1.0000   1.0000   1.0000   1.0000   1.0000
     1.0000   1.0000   1.0000   1.0000   1.0000   1.0000   1.0000   1.0000
     1.0000   1.0000   1.0000   1.0000   1.0000   1.0000   1.0000   1.0000
     1.0000   1.0000   1.0000   1.0000   1.0000   1.0000   1.0000   1.0000
     1.0000   1.0000   1.0000   1.0000   1.0000   1.0000   1.0000   1.0000
     1.0000   1.0000   1.0000   1.0000   1.0000   1.0000   1.0000   1.0000
     1.0000   1.0000   1.0000   1.0000   1.0000   1.0000   1.0000   1.0000
     1.0001   1.0001   1.0001   1.0001   1.0009   1.0009   1.0009   1.0009
     1.0025   1.0025   1.0025   1.0025   0.8351   0.8351   0.8351   0.8351
     0.0000   0.0000   0.0000   0.0000   0.0000   0.0000   0.0000   0.0000
     0.0000   0.0000   0.0000   0.0000   0.0000   0.0000   0.0000   0.0000
     0.0000   0.0000   0.0000   0.0000   0.0000   0.0000   0.0000   0.0000
     0.0000   0.0000   0.0000   0.0000   0.0000   0.0000   0.0000   0.0000
     0.0000   0.0000

 ------ SPIN DOWN ----------


          k = 0.0000 0.0000 0.0000 (135767 PWs)   bands (ev):

  -100.6301-100.6284-100.6284-100.6268 -90.8236 -90.8158 -90.8158 -90.8085
   -90.5719 -90.5647 -90.5647 -90.5574 -90.5183 -90.5111 -90.5111 -90.5038
   -90.1812 -90.1739 -90.1739 -90.1666 -61.1561 -61.1561 -61.1539 -61.1539
   -61.1307 -61.1307 -61.1288 -61.1288 -61.1125 -61.1104 -61.1104 -61.1082
   -54.3899 -54.3899 -54.3766 -54.3766 -54.3334 -54.3231 -54.3231 -54.2994
   -54.2786 -54.2786 -54.2677 -54.2677 -54.1139 -54.1139 -54.1069 -54.1069
   -54.0733 -54.0733 -54.0693 -54.0693 -54.0552 -54.0482 -54.0482 -54.0426
   -54.0139 -54.0139 -54.0068 -54.0068 -54.0067 -54.0017 -54.0017 -53.9983
   -53.9764 -53.9764 -53.9698 -53.9698 -53.7433 -53.7433 -53.7335 -53.7335
   -53.6619 -53.6528 -53.6528 -53.6439 -53.6392 -53.6392 -53.6312 -53.6312
    -6.3048  -5.2648  -5.1933  -5.0789  -5.0602  -5.0602  -5.0191  -4.9973
    -4.9973  -4.9462  -4.8977  -4.8977  -4.5122  -4.4160  -4.3457  -4.0582
    -4.0582  -4.0096  -4.0051  -4.0051  -3.9809  -3.8622  -3.8084  -3.8084
    -3.7902  -3.6694  -3.6694  -3.6540  -3.6540  -3.6028  -3.6028  -3.5167
    -3.5167  -3.4460  -3.4460  -3.3544  -3.3544  -3.3523  -3.3523  -3.1952
    -3.1952  -3.1656  -3.1656  -2.7402  -2.7402  -2.7027  -2.6197  -2.5020
    -2.5020  -2.4667  -2.4667  -2.3967  -2.3922  -2.3922  -2.3642  -2.3642
    -2.3092  -2.3092  -2.2986  -2.2309  -2.2309  -2.1614  -2.0610  -2.0486
    -2.0486  -1.9821  -1.9821  -1.9279  -1.9279  -1.9213  -1.9213  -1.9186
    -1.8895  -1.8286  -1.8286  -1.7294  -1.7294  -1.7240  -1.5524  -1.5291
    -1.2505  -1.2446  -0.8999  -0.8197  -0.5049  -0.5049  -0.1579  -0.0629
    -0.0056  -0.0056   0.1685   0.1685   0.3839   0.4423   0.4423   0.8034
     0.8034   0.8650   0.8650   1.0163   1.0163   1.0242   1.0687   1.0687
     1.1779   1.1779   1.2282   1.2282   1.2342   1.3644   1.3644   1.5292
     1.5446   2.1798   2.1798   2.6844   3.6022   3.6022   4.2215   4.2215
     4.5712   4.5712   5.0920   5.0920   5.1660   5.3369   5.4657   5.8745
     6.0283   6.0283   6.1354   6.7364   6.7364   6.7811   7.0585   7.0585
     7.2428   7.9526   7.9596   7.9596   8.1053   8.3069   8.4443   8.5673
     8.6499   8.9686

     occupation numbers 
     1.0000   1.0000   1.0000   1.0000   1.0000   1.0000   1.0000   1.0000
     1.0000   1.0000   1.0000   1.0000   1.0000   1.0000   1.0000   1.0000
     1.0000   1.0000   1.0000   1.0000   1.0000   1.0000   1.0000   1.0000
     1.0000   1.0000   1.0000   1.0000   1.0000   1.0000   1.0000   1.0000
     1.0000   1.0000   1.0000   1.0000   1.0000   1.0000   1.0000   1.0000
     1.0000   1.0000   1.0000   1.0000   1.0000   1.0000   1.0000   1.0000
     1.0000   1.0000   1.0000   1.0000   1.0000   1.0000   1.0000   1.0000
     1.0000   1.0000   1.0000   1.0000   1.0000   1.0000   1.0000   1.0000
     1.0000   1.0000   1.0000   1.0000   1.0000   1.0000   1.0000   1.0000
     1.0000   1.0000   1.0000   1.0000   1.0000   1.0000   1.0000   1.0000
     1.0000   1.0000   1.0000   1.0000   1.0000   1.0000   1.0000   1.0000
     1.0000   1.0000   1.0000   1.0000   1.0000   1.0000   1.0000   1.0000
     1.0000   1.0000   1.0000   1.0000   1.0000   1.0000   1.0000   1.0000
     1.0000   1.0000   1.0000   1.0000   1.0000   1.0000   1.0000   1.0000
     1.0000   1.0000   1.0000   1.0000   1.0000   1.0000   1.0000   1.0000
     1.0000   1.0000   1.0000   1.0000   1.0000   1.0000   1.0000   1.0000
     1.0000   1.0000   1.0000   1.0000   1.0000   1.0000   1.0000   1.0000
     1.0000   1.0000   1.0000   1.0000   1.0000   1.0000   1.0000   1.0000
     1.0000   1.0000   1.0000   1.0000   1.0000   1.0000   1.0000   1.0000
     1.0000   1.0000   1.0000   1.0000   1.0000   1.0000   1.0000   1.0000
     1.0000   1.0000   1.0000   1.0000   1.0000   1.0000   1.0000   1.0000
     1.0000   1.0000   1.0002   1.0002   1.0059   1.0117   1.0117   1.0765
     1.0765   1.0414   1.0414   0.7991   0.7991   0.7811   0.6741   0.6741
     0.4053   0.4053   0.2974   0.2974   0.2856   0.0999   0.0999   0.0159
     0.0130   0.0000   0.0000   0.0000   0.0000   0.0000   0.0000   0.0000
     0.0000   0.0000   0.0000   0.0000   0.0000   0.0000   0.0000   0.0000
     0.0000   0.0000   0.0000   0.0000   0.0000   0.0000   0.0000   0.0000
     0.0000   0.0000   0.0000   0.0000   0.0000   0.0000   0.0000   0.0000
     0.0000   0.0000

          k = 0.0000 0.2500 0.0000 (135906 PWs)   bands (ev):

  -100.6299-100.6287-100.6282-100.6270 -90.8224 -90.8169 -90.8147 -90.8095
   -90.5708 -90.5658 -90.5637 -90.5585 -90.5172 -90.5121 -90.5100 -90.5048
   -90.1802 -90.1750 -90.1728 -90.1676 -61.1558 -61.1542 -61.1524 -61.1502
   -61.1344 -61.1325 -61.1304 -61.1291 -61.1122 -61.1107 -61.1100 -61.1085
   -54.3877 -54.3783 -54.3740 -54.3610 -54.3313 -54.3238 -54.3198 -54.3030
   -54.2955 -54.2842 -54.2770 -54.2693 -54.1123 -54.1074 -54.0995 -54.0924
   -54.0728 -54.0700 -54.0612 -54.0552 -54.0537 -54.0474 -54.0473 -54.0432
   -54.0291 -54.0216 -54.0128 -54.0078 -54.0058 -54.0025 -54.0013 -53.9988
   -53.9910 -53.9845 -53.9754 -53.9708 -53.7419 -53.7350 -53.7282 -53.7186
   -53.6606 -53.6546 -53.6541 -53.6515 -53.6462 -53.6452 -53.6381 -53.6323
    -5.9937  -5.0808  -5.0573  -5.0260  -4.9098  -4.9020  -4.8810  -4.8401
    -4.8390  -4.8109  -4.8043  -4.7755  -4.3748  -4.3145  -4.2364  -4.1250
    -4.1218  -3.9885  -3.9387  -3.8678  -3.8610  -3.8561  -3.7824  -3.7663
    -3.7314  -3.7218  -3.7107  -3.6362  -3.5754  -3.5469  -3.5256  -3.4371
    -3.4273  -3.4217  -3.3481  -3.3419  -3.3294  -3.3200  -3.3056  -3.3050
    -3.2126  -3.0864  -3.0251  -2.9563  -2.8551  -2.7793  -2.7259  -2.7071
    -2.6890  -2.6269  -2.5861  -2.5430  -2.4694  -2.4295  -2.3818  -2.3522
    -2.3512  -2.3076  -2.2662  -2.2631  -2.2630  -2.2543  -2.2313  -2.2236
    -2.1918  -2.1384  -2.1158  -2.1114  -2.0287  -2.0153  -2.0071  -1.9487
    -1.8633  -1.8307  -1.8058  -1.8023  -1.7735  -1.7712  -1.6842  -1.6596
    -1.6559  -1.4830  -1.4638  -1.3226  -1.1883  -0.5436  -0.4636  -0.1390
    -0.0715  -0.0401   0.0783   0.1103   0.3847   0.4104   0.4566   0.4600
     0.4745   0.6623   0.7675   0.8172   0.9141   0.9391   0.9639   1.0298
     1.0658   1.1747   1.2300   1.2599   1.6056   1.8888   2.0453   2.1202
     2.2858   2.4580   2.9942   3.0221   3.3609   3.7186   4.2011   4.2539
     4.4223   4.7557   4.8514   5.0005   5.4570   5.6337   5.7538   5.7642
     5.9358   6.1683   6.1770   6.4182   6.6753   6.7123   6.9791   7.0801
     7.3332   7.5156   7.7026   7.7747   7.9417   8.0397   8.1368   8.2427
     8.3987   8.6654

     occupation numbers 
     1.0000   1.0000   1.0000   1.0000   1.0000   1.0000   1.0000   1.0000
     1.0000   1.0000   1.0000   1.0000   1.0000   1.0000   1.0000   1.0000
     1.0000   1.0000   1.0000   1.0000   1.0000   1.0000   1.0000   1.0000
     1.0000   1.0000   1.0000   1.0000   1.0000   1.0000   1.0000   1.0000
     1.0000   1.0000   1.0000   1.0000   1.0000   1.0000   1.0000   1.0000
     1.0000   1.0000   1.0000   1.0000   1.0000   1.0000   1.0000   1.0000
     1.0000   1.0000   1.0000   1.0000   1.0000   1.0000   1.0000   1.0000
     1.0000   1.0000   1.0000   1.0000   1.0000   1.0000   1.0000   1.0000
     1.0000   1.0000   1.0000   1.0000   1.0000   1.0000   1.0000   1.0000
     1.0000   1.0000   1.0000   1.0000   1.0000   1.0000   1.0000   1.0000
     1.0000   1.0000   1.0000   1.0000   1.0000   1.0000   1.0000   1.0000
     1.0000   1.0000   1.0000   1.0000   1.0000   1.0000   1.0000   1.0000
     1.0000   1.0000   1.0000   1.0000   1.0000   1.0000   1.0000   1.0000
     1.0000   1.0000   1.0000   1.0000   1.0000   1.0000   1.0000   1.0000
     1.0000   1.0000   1.0000   1.0000   1.0000   1.0000   1.0000   1.0000
     1.0000   1.0000   1.0000   1.0000   1.0000   1.0000   1.0000   1.0000
     1.0000   1.0000   1.0000   1.0000   1.0000   1.0000   1.0000   1.0000
     1.0000   1.0000   1.0000   1.0000   1.0000   1.0000   1.0000   1.0000
     1.0000   1.0000   1.0000   1.0000   1.0000   1.0000   1.0000   1.0000
     1.0000   1.0000   1.0000   1.0000   1.0000   1.0000   1.0000   1.0000
     1.0000   1.0000   1.0000   1.0000   1.0000   1.0000   1.0000   1.0000
     1.0000   1.0000   1.0000   1.0001   1.0060   1.0082   1.0137   1.0142
     1.0164   1.0662   1.0830   1.0716   0.9871   0.9500   0.9071   0.7680
     0.6813   0.4126   0.2938   0.2384   0.0056   0.0000   0.0000   0.0000
     0.0000   0.0000   0.0000   0.0000   0.0000   0.0000   0.0000   0.0000
     0.0000   0.0000   0.0000   0.0000   0.0000   0.0000   0.0000   0.0000
     0.0000   0.0000   0.0000   0.0000   0.0000   0.0000   0.0000   0.0000
     0.0000   0.0000   0.0000   0.0000   0.0000   0.0000   0.0000   0.0000
     0.0000   0.0000

          k = 0.0000-0.5000 0.0000 (135922 PWs)   bands (ev):

  -100.6293-100.6293-100.6276-100.6276 -90.8197 -90.8197 -90.8121 -90.8121
   -90.5683 -90.5683 -90.5611 -90.5611 -90.5147 -90.5147 -90.5074 -90.5074
   -90.1776 -90.1776 -90.1702 -90.1702 -61.1550 -61.1550 -61.1434 -61.1434
   -61.1413 -61.1413 -61.1298 -61.1298 -61.1114 -61.1114 -61.1093 -61.1093
   -54.3828 -54.3828 -54.3353 -54.3353 -54.3269 -54.3269 -54.3231 -54.3231
   -54.3115 -54.3115 -54.2732 -54.2732 -54.1093 -54.1093 -54.0715 -54.0715
   -54.0647 -54.0647 -54.0573 -54.0573 -54.0512 -54.0512 -54.0453 -54.0453
   -54.0256 -54.0256 -54.0201 -54.0201 -54.0103 -54.0103 -54.0040 -54.0040
   -53.9999 -53.9999 -53.9731 -53.9731 -53.7384 -53.7384 -53.6914 -53.6914
   -53.6825 -53.6825 -53.6574 -53.6574 -53.6484 -53.6484 -53.6352 -53.6352
    -5.3115  -5.3115  -4.8216  -4.8216  -4.7717  -4.7717  -4.7062  -4.7062
    -4.5644  -4.5644  -4.5259  -4.5259  -4.4757  -4.4757  -4.2869  -4.2869
    -4.0975  -4.0975  -4.0725  -4.0725  -3.7837  -3.7837  -3.7483  -3.7483
    -3.6073  -3.6073  -3.4636  -3.4636  -3.3990  -3.3990  -3.2697  -3.2697
    -3.2431  -3.2431  -3.1649  -3.1649  -3.1629  -3.1629  -3.0884  -3.0884
    -3.0648  -3.0648  -2.9370  -2.9370  -2.9025  -2.9025  -2.8577  -2.8577
    -2.8478  -2.8478  -2.8391  -2.8391  -2.7492  -2.7492  -2.6808  -2.6808
    -2.5546  -2.5546  -2.5121  -2.5121  -2.3818  -2.3818  -2.3616  -2.3616
    -2.3547  -2.3547  -2.2762  -2.2762  -2.1477  -2.1477  -2.0086  -2.0086
    -1.9617  -1.9617  -1.9586  -1.9586  -1.9324  -1.9324  -1.9095  -1.9095
    -1.6832  -1.6832  -1.6519  -1.6519  -1.4407  -1.4407  -0.0138  -0.0138
     0.1213   0.1213   0.2053   0.2053   0.2915   0.2915   0.5205   0.5205
     0.5434   0.5434   0.5976   0.5976   0.7817   0.7817   1.0380   1.0380
     1.0542   1.0542   1.3501   1.3501   2.0604   2.0604   2.2474   2.2474
     2.9613   2.9613   3.0739   3.0739   3.1738   3.1738   3.8807   3.8807
     4.8094   4.8094   4.9707   4.9707   5.7525   5.7525   6.3288   6.3288
     6.5217   6.5217   6.6141   6.6141   6.6816   6.6816   7.0819   7.0819
     7.1349   7.1349   7.2619   7.2619   7.7646   7.7646   7.9630   7.9630
     8.1761   8.1761

     occupation numbers 
     1.0000   1.0000   1.0000   1.0000   1.0000   1.0000   1.0000   1.0000
     1.0000   1.0000   1.0000   1.0000   1.0000   1.0000   1.0000   1.0000
     1.0000   1.0000   1.0000   1.0000   1.0000   1.0000   1.0000   1.0000
     1.0000   1.0000   1.0000   1.0000   1.0000   1.0000   1.0000   1.0000
     1.0000   1.0000   1.0000   1.0000   1.0000   1.0000   1.0000   1.0000
     1.0000   1.0000   1.0000   1.0000   1.0000   1.0000   1.0000   1.0000
     1.0000   1.0000   1.0000   1.0000   1.0000   1.0000   1.0000   1.0000
     1.0000   1.0000   1.0000   1.0000   1.0000   1.0000   1.0000   1.0000
     1.0000   1.0000   1.0000   1.0000   1.0000   1.0000   1.0000   1.0000
     1.0000   1.0000   1.0000   1.0000   1.0000   1.0000   1.0000   1.0000
     1.0000   1.0000   1.0000   1.0000   1.0000   1.0000   1.0000   1.0000
     1.0000   1.0000   1.0000   1.0000   1.0000   1.0000   1.0000   1.0000
     1.0000   1.0000   1.0000   1.0000   1.0000   1.0000   1.0000   1.0000
     1.0000   1.0000   1.0000   1.0000   1.0000   1.0000   1.0000   1.0000
     1.0000   1.0000   1.0000   1.0000   1.0000   1.0000   1.0000   1.0000
     1.0000   1.0000   1.0000   1.0000   1.0000   1.0000   1.0000   1.0000
     1.0000   1.0000   1.0000   1.0000   1.0000   1.0000   1.0000   1.0000
     1.0000   1.0000   1.0000   1.0000   1.0000   1.0000   1.0000   1.0000
     1.0000   1.0000   1.0000   1.0000   1.0000   1.0000   1.0000   1.0000
     1.0000   1.0000   1.0000   1.0000   1.0000   1.0000   1.0000   1.0000
     1.0000   1.0000   1.0000   1.0000   1.0000   1.0000   1.0000   1.0000
     1.0001   1.0001   1.0004   1.0004   1.0017   1.0017   1.0254   1.0254
     1.0308   1.0308   1.0461   1.0461   1.0815   1.0815   0.7487   0.7487
     0.7097   0.7097   0.1140   0.1140   0.0000   0.0000   0.0000   0.0000
     0.0000   0.0000   0.0000   0.0000   0.0000   0.0000   0.0000   0.0000
     0.0000   0.0000   0.0000   0.0000   0.0000   0.0000   0.0000   0.0000
     0.0000   0.0000   0.0000   0.0000   0.0000   0.0000   0.0000   0.0000
     0.0000   0.0000   0.0000   0.0000   0.0000   0.0000   0.0000   0.0000
     0.0000   0.0000

          k = 0.2500 0.2500 0.0000 (135950 PWs)   bands (ev):

  -100.6296-100.6284-100.6284-100.6273 -90.8213 -90.8158 -90.8158 -90.8106
   -90.5698 -90.5647 -90.5647 -90.5596 -90.5162 -90.5111 -90.5111 -90.5059
   -90.1791 -90.1739 -90.1739 -90.1687 -61.1521 -61.1521 -61.1506 -61.1505
   -61.1342 -61.1341 -61.1328 -61.1328 -61.1119 -61.1104 -61.1104 -61.1088
   -54.3720 -54.3720 -54.3632 -54.3622 -54.3291 -54.3208 -54.3208 -54.3060
   -54.2946 -54.2929 -54.2857 -54.2857 -54.0981 -54.0981 -54.0934 -54.0930
   -54.0601 -54.0601 -54.0558 -54.0558 -54.0523 -54.0471 -54.0471 -54.0440
   -54.0283 -54.0276 -54.0226 -54.0226 -54.0052 -54.0020 -54.0020 -53.9993
   -53.9901 -53.9899 -53.9855 -53.9855 -53.7268 -53.7268 -53.7202 -53.7198
   -53.6593 -53.6536 -53.6531 -53.6528 -53.6528 -53.6474 -53.6474 -53.6465
    -5.6848  -4.8797  -4.8191  -4.8170  -4.8170  -4.7810  -4.7678  -4.7678
    -4.7186  -4.7066  -4.6727  -4.6039  -4.1666  -4.1448  -4.1448  -4.0808
    -4.0424  -4.0424  -4.0399  -3.9136  -3.9136  -3.7447  -3.6852  -3.6442
    -3.6330  -3.6275  -3.5710  -3.5666  -3.5666  -3.5089  -3.5089  -3.4921
    -3.4921  -3.4740  -3.3805  -3.3805  -3.3636  -3.2029  -3.2029  -3.1282
    -3.1282  -3.1223  -3.0221  -2.9950  -2.9950  -2.9861  -2.7961  -2.7752
    -2.7222  -2.7222  -2.6682  -2.5941  -2.5941  -2.5578  -2.4788  -2.4788
    -2.4248  -2.4103  -2.3782  -2.3782  -2.3049  -2.2881  -2.2730  -2.2730
    -2.2327  -2.2272  -2.2101  -2.1892  -2.1816  -2.1423  -2.1423  -2.0600
    -2.0600  -2.0280  -1.9766  -1.8495  -1.8495  -1.8232  -1.8139  -1.7648
    -1.6425  -1.6174  -1.5347  -1.2508  -1.2508  -0.7733  -0.7733  -0.2444
    -0.2444  -0.1747  -0.1644   0.0329   0.0498   0.2487   0.2487   0.5454
     0.6347   0.6430   0.6430   0.7848   0.7848   0.8417   0.9647   1.0274
     1.0546   1.0546   1.1358   1.1491   1.1723   1.3468   1.3468   2.2363
     2.4860   2.7801   2.7801   3.7435   3.9038   4.1095   4.1095   5.0148
     5.0480   5.0480   5.2622   5.2622   5.4460   5.7479   5.9304   6.0413
     6.2810   6.4799   6.6998   6.9010   6.9010   6.9803   6.9803   7.3460
     7.3796   7.7864   8.0635   8.0635   8.1402   8.2293   8.2293   8.3207
     8.3207   8.4624

     occupation numbers 
     1.0000   1.0000   1.0000   1.0000   1.0000   1.0000   1.0000   1.0000
     1.0000   1.0000   1.0000   1.0000   1.0000   1.0000   1.0000   1.0000
     1.0000   1.0000   1.0000   1.0000   1.0000   1.0000   1.0000   1.0000
     1.0000   1.0000   1.0000   1.0000   1.0000   1.0000   1.0000   1.0000
     1.0000   1.0000   1.0000   1.0000   1.0000   1.0000   1.0000   1.0000
     1.0000   1.0000   1.0000   1.0000   1.0000   1.0000   1.0000   1.0000
     1.0000   1.0000   1.0000   1.0000   1.0000   1.0000   1.0000   1.0000
     1.0000   1.0000   1.0000   1.0000   1.0000   1.0000   1.0000   1.0000
     1.0000   1.0000   1.0000   1.0000   1.0000   1.0000   1.0000   1.0000
     1.0000   1.0000   1.0000   1.0000   1.0000   1.0000   1.0000   1.0000
     1.0000   1.0000   1.0000   1.0000   1.0000   1.0000   1.0000   1.0000
     1.0000   1.0000   1.0000   1.0000   1.0000   1.0000   1.0000   1.0000
     1.0000   1.0000   1.0000   1.0000   1.0000   1.0000   1.0000   1.0000
     1.0000   1.0000   1.0000   1.0000   1.0000   1.0000   1.0000   1.0000
     1.0000   1.0000   1.0000   1.0000   1.0000   1.0000   1.0000   1.0000
     1.0000   1.0000   1.0000   1.0000   1.0000   1.0000   1.0000   1.0000
     1.0000   1.0000   1.0000   1.0000   1.0000   1.0000   1.0000   1.0000
     1.0000   1.0000   1.0000   1.0000   1.0000   1.0000   1.0000   1.0000
     1.0000   1.0000   1.0000   1.0000   1.0000   1.0000   1.0000   1.0000
     1.0000   1.0000   1.0000   1.0000   1.0000   1.0000   1.0000   1.0000
     1.0000   1.0000   1.0000   1.0000   1.0000   1.0000   1.0000   1.0000
     1.0000   1.0000   1.0000   1.0000   1.0000   1.0009   1.0009   1.0314
     1.0577   1.0603   1.0603   1.0810   1.0810   1.0587   0.9055   0.7736
     0.7088   0.7088   0.5060   0.4734   0.4181   0.1175   0.1175   0.0000
     0.0000   0.0000   0.0000   0.0000   0.0000   0.0000   0.0000   0.0000
     0.0000   0.0000   0.0000   0.0000   0.0000   0.0000   0.0000   0.0000
     0.0000   0.0000   0.0000   0.0000   0.0000   0.0000   0.0000   0.0000
     0.0000   0.0000   0.0000   0.0000   0.0000   0.0000   0.0000   0.0000
     0.0000   0.0000

          k = 0.2500-0.5000 0.0000 (135938 PWs)   bands (ev):

  -100.6290-100.6290-100.6278-100.6278 -90.8186 -90.8186 -90.8132 -90.8132
   -90.5673 -90.5673 -90.5621 -90.5621 -90.5136 -90.5136 -90.5085 -90.5085
   -90.1765 -90.1765 -90.1713 -90.1713 -61.1513 -61.1513 -61.1431 -61.1431
   -61.1416 -61.1416 -61.1335 -61.1335 -61.1111 -61.1111 -61.1096 -61.1096
   -54.3671 -54.3671 -54.3334 -54.3334 -54.3247 -54.3247 -54.3243 -54.3243
   -54.3133 -54.3133 -54.2897 -54.2897 -54.0952 -54.0952 -54.0635 -54.0635
   -54.0597 -54.0597 -54.0563 -54.0563 -54.0499 -54.0499 -54.0456 -54.0456
   -54.0268 -54.0268 -54.0234 -54.0234 -54.0210 -54.0210 -54.0034 -54.0034
   -54.0005 -54.0005 -53.9877 -53.9877 -53.7234 -53.7234 -53.6901 -53.6901
   -53.6838 -53.6838 -53.6560 -53.6560 -53.6504 -53.6504 -53.6497 -53.6497
    -5.0272  -5.0272  -4.6292  -4.6292  -4.5671  -4.5671  -4.5215  -4.5215
    -4.4964  -4.4964  -4.4350  -4.4350  -4.3675  -4.3675  -4.2593  -4.2593
    -4.0123  -4.0123  -3.9259  -3.9259  -3.6804  -3.6804  -3.6467  -3.6467
    -3.5833  -3.5833  -3.5092  -3.5092  -3.4365  -3.4365  -3.3326  -3.3326
    -3.3172  -3.3172  -3.2378  -3.2378  -3.1762  -3.1762  -3.1222  -3.1222
    -2.9849  -2.9849  -2.9656  -2.9656  -2.9246  -2.9246  -2.9091  -2.9091
    -2.8799  -2.8799  -2.8188  -2.8188  -2.7093  -2.7093  -2.6874  -2.6874
    -2.6273  -2.6273  -2.5643  -2.5643  -2.4819  -2.4819  -2.4448  -2.4448
    -2.4195  -2.4195  -2.2961  -2.2961  -2.2870  -2.2870  -2.2184  -2.2184
    -2.1874  -2.1874  -2.1031  -2.1031  -1.9921  -1.9921  -1.8668  -1.8668
    -1.7707  -1.7707  -1.7512  -1.7512  -1.0829  -1.0829  -0.7510  -0.7510
    -0.3143  -0.3143   0.1569   0.1569   0.2657   0.2657   0.3581   0.3581
     0.6139   0.6139   0.6937   0.6937   0.7212   0.7212   0.8466   0.8466
     0.9273   0.9273   1.0087   1.0087   1.2434   1.2434   1.7017   1.7017
     2.3042   2.3042   3.5504   3.5504   3.9226   3.9226   4.9586   4.9586
     5.2087   5.2087   5.9128   5.9128   5.9842   5.9842   6.6191   6.6191
     6.8169   6.8169   6.8999   6.8999   7.3843   7.3843   7.4749   7.4749
     7.5477   7.5477   7.5830   7.5830   7.8333   7.8333   8.2629   8.2629
     8.4922   8.4922

     occupation numbers 
     1.0000   1.0000   1.0000   1.0000   1.0000   1.0000   1.0000   1.0000
     1.0000   1.0000   1.0000   1.0000   1.0000   1.0000   1.0000   1.0000
     1.0000   1.0000   1.0000   1.0000   1.0000   1.0000   1.0000   1.0000
     1.0000   1.0000   1.0000   1.0000   1.0000   1.0000   1.0000   1.0000
     1.0000   1.0000   1.0000   1.0000   1.0000   1.0000   1.0000   1.0000
     1.0000   1.0000   1.0000   1.0000   1.0000   1.0000   1.0000   1.0000
     1.0000   1.0000   1.0000   1.0000   1.0000   1.0000   1.0000   1.0000
     1.0000   1.0000   1.0000   1.0000   1.0000   1.0000   1.0000   1.0000
     1.0000   1.0000   1.0000   1.0000   1.0000   1.0000   1.0000   1.0000
     1.0000   1.0000   1.0000   1.0000   1.0000   1.0000   1.0000   1.0000
     1.0000   1.0000   1.0000   1.0000   1.0000   1.0000   1.0000   1.0000
     1.0000   1.0000   1.0000   1.0000   1.0000   1.0000   1.0000   1.0000
     1.0000   1.0000   1.0000   1.0000   1.0000   1.0000   1.0000   1.0000
     1.0000   1.0000   1.0000   1.0000   1.0000   1.0000   1.0000   1.0000
     1.0000   1.0000   1.0000   1.0000   1.0000   1.0000   1.0000   1.0000
     1.0000   1.0000   1.0000   1.0000   1.0000   1.0000   1.0000   1.0000
     1.0000   1.0000   1.0000   1.0000   1.0000   1.0000   1.0000   1.0000
     1.0000   1.0000   1.0000   1.0000   1.0000   1.0000   1.0000   1.0000
     1.0000   1.0000   1.0000   1.0000   1.0000   1.0000   1.0000   1.0000
     1.0000   1.0000   1.0000   1.0000   1.0000   1.0000   1.0000   1.0000
     1.0000   1.0000   1.0000   1.0000   1.0000   1.0000   1.0000   1.0000
     1.0000   1.0000   1.0002   1.0002   1.0012   1.0012   1.0043   1.0043
     1.0512   1.0512   1.0747   1.0747   1.0803   1.0803   1.0555   1.0555
     0.9683   0.9683   0.8160   0.8160   0.2683   0.2683   0.0012   0.0012
     0.0000   0.0000   0.0000   0.0000   0.0000   0.0000   0.0000   0.0000
     0.0000   0.0000   0.0000   0.0000   0.0000   0.0000   0.0000   0.0000
     0.0000   0.0000   0.0000   0.0000   0.0000   0.0000   0.0000   0.0000
     0.0000   0.0000   0.0000   0.0000   0.0000   0.0000   0.0000   0.0000
     0.0000   0.0000

          k =-0.5000-0.5000 0.0000 (136072 PWs)   bands (ev):

  -100.6284-100.6284-100.6284-100.6284 -90.8159 -90.8159 -90.8159 -90.8159
   -90.5647 -90.5647 -90.5647 -90.5647 -90.5111 -90.5111 -90.5111 -90.5111
   -90.1739 -90.1739 -90.1739 -90.1739 -61.1425 -61.1425 -61.1425 -61.1425
   -61.1423 -61.1423 -61.1423 -61.1423 -61.1103 -61.1103 -61.1103 -61.1103
   -54.3301 -54.3301 -54.3301 -54.3301 -54.3275 -54.3275 -54.3275 -54.3275
   -54.3185 -54.3185 -54.3185 -54.3185 -54.0611 -54.0611 -54.0611 -54.0611
   -54.0605 -54.0605 -54.0605 -54.0605 -54.0474 -54.0474 -54.0474 -54.0474
   -54.0231 -54.0231 -54.0231 -54.0231 -54.0230 -54.0230 -54.0230 -54.0230
   -54.0017 -54.0017 -54.0017 -54.0017 -53.6875 -53.6875 -53.6875 -53.6875
   -53.6865 -53.6865 -53.6865 -53.6865 -53.6529 -53.6529 -53.6529 -53.6529
    -4.5478  -4.5478  -4.5478  -4.5478  -4.3127  -4.3127  -4.3127  -4.3127
    -4.3014  -4.3014  -4.3014  -4.3014  -4.1424  -4.1424  -4.1424  -4.1424
    -3.9954  -3.9954  -3.9954  -3.9954  -3.8507  -3.8507  -3.8507  -3.8507
    -3.4287  -3.4287  -3.4287  -3.4287  -3.3816  -3.3816  -3.3816  -3.3816
    -3.1758  -3.1758  -3.1758  -3.1758  -3.0257  -3.0257  -3.0257  -3.0257
    -2.9988  -2.9988  -2.9988  -2.9988  -2.8755  -2.8755  -2.8755  -2.8755
    -2.8665  -2.8665  -2.8665  -2.8665  -2.7536  -2.7536  -2.7536  -2.7536
    -2.5793  -2.5793  -2.5793  -2.5793  -2.5437  -2.5437  -2.5437  -2.5437
    -2.5403  -2.5403  -2.5403  -2.5403  -2.5138  -2.5138  -2.5138  -2.5138
    -2.4203  -2.4203  -2.4203  -2.4203  -1.9620  -1.9620  -1.9620  -1.9620
    -1.8170  -1.8170  -1.8170  -1.8170  -1.3317  -1.3317  -1.3317  -1.3317
    -0.4403  -0.4403  -0.4403  -0.4403   0.5159   0.5159   0.5159   0.5159
     0.5507   0.5507   0.5507   0.5507   0.8120   0.8120   0.8120   0.8120
     0.8331   0.8331   0.8331   0.8331   1.2876   1.2876   1.2876   1.2876
     2.5663   2.5663   2.5663   2.5663   4.5286   4.5286   4.5286   4.5286
     6.2850   6.2850   6.2850   6.2850   7.4874   7.4874   7.4874   7.4874
     7.6948   7.6948   7.6948   7.6948   7.7538   7.7538   7.7539   7.7539
     7.7996   7.7996   7.7996   7.7996   8.2846   8.2846   8.2847   8.2847
     8.3661   8.3661

     occupation numbers 
     1.0000   1.0000   1.0000   1.0000   1.0000   1.0000   1.0000   1.0000
     1.0000   1.0000   1.0000   1.0000   1.0000   1.0000   1.0000   1.0000
     1.0000   1.0000   1.0000   1.0000   1.0000   1.0000   1.0000   1.0000
     1.0000   1.0000   1.0000   1.0000   1.0000   1.0000   1.0000   1.0000
     1.0000   1.0000   1.0000   1.0000   1.0000   1.0000   1.0000   1.0000
     1.0000   1.0000   1.0000   1.0000   1.0000   1.0000   1.0000   1.0000
     1.0000   1.0000   1.0000   1.0000   1.0000   1.0000   1.0000   1.0000
     1.0000   1.0000   1.0000   1.0000   1.0000   1.0000   1.0000   1.0000
     1.0000   1.0000   1.0000   1.0000   1.0000   1.0000   1.0000   1.0000
     1.0000   1.0000   1.0000   1.0000   1.0000   1.0000   1.0000   1.0000
     1.0000   1.0000   1.0000   1.0000   1.0000   1.0000   1.0000   1.0000
     1.0000   1.0000   1.0000   1.0000   1.0000   1.0000   1.0000   1.0000
     1.0000   1.0000   1.0000   1.0000   1.0000   1.0000   1.0000   1.0000
     1.0000   1.0000   1.0000   1.0000   1.0000   1.0000   1.0000   1.0000
     1.0000   1.0000   1.0000   1.0000   1.0000   1.0000   1.0000   1.0000
     1.0000   1.0000   1.0000   1.0000   1.0000   1.0000   1.0000   1.0000
     1.0000   1.0000   1.0000   1.0000   1.0000   1.0000   1.0000   1.0000
     1.0000   1.0000   1.0000   1.0000   1.0000   1.0000   1.0000   1.0000
     1.0000   1.0000   1.0000   1.0000   1.0000   1.0000   1.0000   1.0000
     1.0000   1.0000   1.0000   1.0000   1.0000   1.0000   1.0000   1.0000
     1.0000   1.0000   1.0000   1.0000   1.0000   1.0000   1.0000   1.0000
     1.0000   1.0000   1.0000   1.0000   1.0244   1.0244   1.0244   1.0244
     1.0327   1.0327   1.0327   1.0327   1.0736   1.0736   1.0736   1.0736
     1.0638   1.0638   1.0638   1.0638   0.1935   0.1935   0.1935   0.1935
     0.0000   0.0000   0.0000   0.0000   0.0000   0.0000   0.0000   0.0000
     0.0000   0.0000   0.0000   0.0000   0.0000   0.0000   0.0000   0.0000
     0.0000   0.0000   0.0000   0.0000   0.0000   0.0000   0.0000   0.0000
     0.0000   0.0000   0.0000   0.0000   0.0000   0.0000   0.0000   0.0000
     0.0000   0.0000

     the Fermi energy is     1.1799 ev

!    total energy              =   -6297.32132723 Ry
     estimated scf accuracy    <       0.00000486 Ry
     smearing contrib. (-TS)   =       0.00982566 Ry
     internal energy E=F+TS    =   -6297.33115289 Ry

     The total energy is F=E-TS. E is the sum of the following terms:
     one-electron contribution = -103036.41804184 Ry
     hartree contribution      =   51515.38642941 Ry
     xc contribution           =    -905.01812006 Ry
     ewald contribution        =   46128.71857959 Ry

     total magnetization       =     2.15 Bohr mag/cell
     absolute magnetization    =     2.55 Bohr mag/cell

     convergence has been achieved in  15 iterations

     Forces acting on atoms (cartesian axes, Ry/au):

     atom    1 type  1   force =     0.00000000    0.00000000   -0.00579660
     atom    2 type  1   force =     0.00000000    0.00000000   -0.00579655
     atom    3 type  1   force =     0.00000000    0.00000000   -0.00579655
     atom    4 type  1   force =     0.00000000    0.00000000   -0.00579648
     atom    5 type  1   force =     0.00000003    0.00000003    0.00487382
     atom    6 type  1   force =    -0.00000003    0.00000003    0.00487382
     atom    7 type  1   force =     0.00000003   -0.00000003    0.00487382
     atom    8 type  1   force =    -0.00000003   -0.00000003    0.00487382
     atom    9 type  1   force =     0.00000000    0.00000000    0.03714929
     atom   10 type  1   force =     0.00000000    0.00000000    0.03714928
     atom   11 type  1   force =     0.00000000    0.00000000    0.03714928
     atom   12 type  1   force =     0.00000000    0.00000000    0.03714917
     atom   13 type  2   force =    -0.00000002   -0.00000002    0.00201452
     atom   14 type  2   force =     0.00000002   -0.00000002    0.00201452
     atom   15 type  2   force =    -0.00000002    0.00000002    0.00201452
     atom   16 type  2   force =     0.00000002    0.00000002    0.00201452
     atom   17 type  1   force =     0.00000000    0.00000000   -0.03824106
     atom   18 type  1   force =     0.00000000    0.00000000   -0.03824106
     atom   19 type  1   force =     0.00000000    0.00000000   -0.03824106
     atom   20 type  1   force =     0.00000000    0.00000000   -0.03824101
     The non-local contrib.  to forces
     atom    1 type  1   force =     0.00000000    0.00000000   -0.23149330
     atom    2 type  1   force =     0.00000000    0.00000000   -0.23149348
     atom    3 type  1   force =     0.00000000    0.00000000   -0.23149348
     atom    4 type  1   force =     0.00000000    0.00000000   -0.23149332
     atom    5 type  1   force =     0.00000004    0.00000004   -0.01434266
     atom    6 type  1   force =    -0.00000004    0.00000004   -0.01434266
     atom    7 type  1   force =     0.00000004   -0.00000004   -0.01434266
     atom    8 type  1   force =    -0.00000004   -0.00000004   -0.01434266
     atom    9 type  1   force =     0.00000000    0.00000000   -0.09354781
     atom   10 type  1   force =     0.00000000    0.00000000   -0.09354793
     atom   11 type  1   force =     0.00000000    0.00000000   -0.09354793
     atom   12 type  1   force =     0.00000000    0.00000000   -0.09354785
     atom   13 type  2   force =    -0.00000000   -0.00000000   -0.01813560
     atom   14 type  2   force =     0.00000000   -0.00000000   -0.01813560
     atom   15 type  2   force =    -0.00000000    0.00000000   -0.01813560
     atom   16 type  2   force =     0.00000000    0.00000000   -0.01813560
     atom   17 type  1   force =     0.00000000    0.00000000    0.32107421
     atom   18 type  1   force =     0.00000000    0.00000000    0.32107415
     atom   19 type  1   force =     0.00000000    0.00000000    0.32107415
     atom   20 type  1   force =     0.00000000    0.00000000    0.32107420
     The ionic contribution  to forces
     atom    1 type  1   force =     0.00000000    0.00000000 -450.38670876
     atom    2 type  1   force =    -0.00000000    0.00000000 -450.38670530
     atom    3 type  1   force =     0.00000000   -0.00000000 -450.38670530
     atom    4 type  1   force =    -0.00000000   -0.00000000 -450.38670193
     atom    5 type  1   force =     0.00000605    0.00000605 -224.23883483
     atom    6 type  1   force =    -0.00000605    0.00000605 -224.23883483
     atom    7 type  1   force =     0.00000605   -0.00000605 -224.23883483
     atom    8 type  1   force =    -0.00000605   -0.00000605 -224.23883483
     atom    9 type  1   force =     0.00000000    0.00000000    7.23126224
     atom   10 type  1   force =    -0.00000000    0.00000000    7.23126578
     atom   11 type  1   force =     0.00000000   -0.00000000    7.23126578
     atom   12 type  1   force =    -0.00000000   -0.00000000    7.23126559
     atom   13 type  2   force =    -0.00000192   -0.00000192  218.65175374
     atom   14 type  2   force =     0.00000192   -0.00000192  218.65175374
     atom   15 type  2   force =    -0.00000192    0.00000192  218.65175374
     atom   16 type  2   force =     0.00000192    0.00000192  218.65175374
     atom   17 type  1   force =     0.00000000    0.00000000  448.74252782
     atom   18 type  1   force =    -0.00000000    0.00000000  448.74251905
     atom   19 type  1   force =     0.00000000   -0.00000000  448.74251905
     atom   20 type  1   force =    -0.00000000   -0.00000000  448.74252035
     The local contribution  to forces
     atom    1 type  1   force =     0.00000000    0.00000000  450.59627751
     atom    2 type  1   force =    -0.00000001   -0.00000000  450.59627380
     atom    3 type  1   force =     0.00000000   -0.00000001  450.59627380
     atom    4 type  1   force =    -0.00000001   -0.00000001  450.59627038
     atom    5 type  1   force =    -0.00000610   -0.00000610  224.25452661
     atom    6 type  1   force =     0.00000607   -0.00000610  224.25452661
     atom    7 type  1   force =    -0.00000610    0.00000607  224.25452661
     atom    8 type  1   force =     0.00000607    0.00000607  224.25452661
     atom    9 type  1   force =     0.00000000    0.00000000   -7.11155296
     atom   10 type  1   force =    -0.00000001   -0.00000000   -7.11155640
     atom   11 type  1   force =     0.00000000   -0.00000001   -7.11155640
     atom   12 type  1   force =    -0.00000001   -0.00000001   -7.11155627
     atom   13 type  2   force =     0.00000187    0.00000187 -218.63750162
     atom   14 type  2   force =    -0.00000192    0.00000187 -218.63750162
     atom   15 type  2   force =     0.00000187   -0.00000192 -218.63750162
     atom   16 type  2   force =    -0.00000192   -0.00000192 -218.63750162
     atom   17 type  1   force =     0.00000000    0.00000000 -449.08337016
     atom   18 type  1   force =    -0.00000001    0.00000000 -449.08336133
     atom   19 type  1   force =     0.00000000   -0.00000001 -449.08336133
     atom   20 type  1   force =    -0.00000001   -0.00000001 -449.08336250
     The core correction contribution to forces
     atom    1 type  1   force =    -0.00000000   -0.00000000    0.01556351
     atom    2 type  1   force =     0.00000000   -0.00000000    0.01556352
     atom    3 type  1   force =    -0.00000000    0.00000000    0.01556352
     atom    4 type  1   force =     0.00000000    0.00000000    0.01556351
     atom    5 type  1   force =    -0.00000000   -0.00000000    0.00005250
     atom    6 type  1   force =     0.00000000   -0.00000000    0.00005250
     atom    7 type  1   force =    -0.00000000    0.00000000    0.00005250
     atom    8 type  1   force =     0.00000000    0.00000000    0.00005250
     atom    9 type  1   force =    -0.00000000   -0.00000000    0.00624137
     atom   10 type  1   force =     0.00000000   -0.00000000    0.00624138
     atom   11 type  1   force =    -0.00000000    0.00000000    0.00624138
     atom   12 type  1   force =     0.00000000    0.00000000    0.00624136
     atom   13 type  2   force =    -0.00000000   -0.00000000    0.00193243
     atom   14 type  2   force =     0.00000001   -0.00000000    0.00193243
     atom   15 type  2   force =    -0.00000000    0.00000001    0.00193243
     atom   16 type  2   force =     0.00000001    0.00000001    0.00193243
     atom   17 type  1   force =    -0.00000000   -0.00000000   -0.02118622
     atom   18 type  1   force =     0.00000000   -0.00000000   -0.02118622
     atom   19 type  1   force =    -0.00000000    0.00000000   -0.02118622
     atom   20 type  1   force =     0.00000000    0.00000000   -0.02118622
     The Hubbard contrib.    to forces
     atom    1 type  1   force =     0.00000000    0.00000000    0.00000000
     atom    2 type  1   force =     0.00000000    0.00000000    0.00000000
     atom    3 type  1   force =     0.00000000    0.00000000    0.00000000
     atom    4 type  1   force =     0.00000000    0.00000000    0.00000000
     atom    5 type  1   force =     0.00000000    0.00000000    0.00000000
     atom    6 type  1   force =     0.00000000    0.00000000    0.00000000
     atom    7 type  1   force =     0.00000000    0.00000000    0.00000000
     atom    8 type  1   force =     0.00000000    0.00000000    0.00000000
     atom    9 type  1   force =     0.00000000    0.00000000    0.00000000
     atom   10 type  1   force =     0.00000000    0.00000000    0.00000000
     atom   11 type  1   force =     0.00000000    0.00000000    0.00000000
     atom   12 type  1   force =     0.00000000    0.00000000    0.00000000
     atom   13 type  2   force =     0.00000000    0.00000000    0.00000000
     atom   14 type  2   force =     0.00000000    0.00000000    0.00000000
     atom   15 type  2   force =     0.00000000    0.00000000    0.00000000
     atom   16 type  2   force =     0.00000000    0.00000000    0.00000000
     atom   17 type  1   force =     0.00000000    0.00000000    0.00000000
     atom   18 type  1   force =     0.00000000    0.00000000    0.00000000
     atom   19 type  1   force =     0.00000000    0.00000000    0.00000000
     atom   20 type  1   force =     0.00000000    0.00000000    0.00000000
     The SCF correction term to forces
     atom    1 type  1   force =     0.00000000    0.00000000    0.00000000
     atom    2 type  1   force =     0.00000000    0.00000000    0.00000000
     atom    3 type  1   force =     0.00000000    0.00000000    0.00000000
     atom    4 type  1   force =     0.00000000    0.00000000    0.00000000
     atom    5 type  1   force =     0.00000003    0.00000003    0.00348763
     atom    6 type  1   force =    -0.00000003    0.00000003    0.00348763
     atom    7 type  1   force =     0.00000003   -0.00000003    0.00348763
     atom    8 type  1   force =    -0.00000003   -0.00000003    0.00348763
     atom    9 type  1   force =     0.00000000    0.00000000    0.00476188
     atom   10 type  1   force =    -0.00000000    0.00000000    0.00476188
     atom   11 type  1   force =     0.00000000   -0.00000000    0.00476188
     atom   12 type  1   force =    -0.00000000   -0.00000000    0.00476176
     atom   13 type  2   force =     0.00000002    0.00000002    0.00398099
     atom   14 type  2   force =    -0.00000002    0.00000002    0.00398099
     atom   15 type  2   force =     0.00000002   -0.00000002    0.00398099
     atom   16 type  2   force =    -0.00000002   -0.00000002    0.00398099
     atom   17 type  1   force =     0.00000000    0.00000000    0.00272871
     atom   18 type  1   force =    -0.00000000    0.00000000    0.00272872
     atom   19 type  1   force =     0.00000000   -0.00000000    0.00272872
     atom   20 type  1   force =    -0.00000000   -0.00000000    0.00272858

     Total force =     0.107150     Total SCF correction =     0.015249
     SCF correction compared to forces is large: reduce conv_thr to get better values


     Computing stress (Cartesian axis) and pressure

          total   stress  (Ry/bohr**3)                   (kbar)     P=      -21.86
  -0.00016088   0.00000000   0.00000000          -23.67        0.00        0.00
   0.00000000  -0.00016088   0.00000000            0.00      -23.67        0.00
   0.00000000   0.00000000  -0.00012399            0.00        0.00      -18.24

     kinetic stress (kbar)  27453.30      0.00      0.00
                                0.00  27453.30      0.00
                                0.00      0.00  27533.03

     local   stress (kbar)**********     -0.00      0.00
                               -0.00**********      0.00
                                0.00      0.001771490.01

     nonloc. stress (kbar)  -2587.86      0.00      0.00
                                0.00  -2587.86      0.00
                                0.00      0.00  -2615.72

     hartree stress (kbar) 894410.02     -0.00      0.00
                               -0.00 894410.02      0.00
                                0.00      0.00-875452.84

     exc-cor stress (kbar)   1902.90     -0.00     -0.00
                               -0.00   1902.90     -0.00
                               -0.00     -0.00   1901.32

     corecor stress (kbar)  -6123.48     -0.00     -0.00
                               -0.00  -6123.48     -0.00
                               -0.00     -0.00  -6123.45

     ewald   stress (kbar) 867306.12     -0.00     -0.00
                               -0.00 867306.12     -0.00
                               -0.00     -0.00-916750.59

     hubbard stress (kbar)      0.00      0.00      0.00
                                0.00      0.00      0.00
                                0.00      0.00      0.00

     DFT-D   stress (kbar)      0.00      0.00      0.00
                                0.00      0.00      0.00
                                0.00      0.00      0.00

     XDM     stress (kbar)      0.00      0.00      0.00
                                0.00      0.00      0.00
                                0.00      0.00      0.00

     dft-nl  stress (kbar)      0.00      0.00      0.00
                                0.00      0.00      0.00
                                0.00      0.00      0.00

     TS-vdW  stress (kbar)      0.00      0.00      0.00
                                0.00      0.00      0.00
                                0.00      0.00      0.00


                                0.00      0.00      0.00
                                0.00      0.00      0.00


                                0.00      0.00      0.00


     Writing all to output data dir ../out/alloy_100.save/
 
     init_run     :     17.72s CPU     18.13s WALL (       1 calls)
     electrons    :    503.30s CPU    509.68s WALL (       1 calls)
     forces       :      6.13s CPU      6.18s WALL (       1 calls)
     stress       :     56.92s CPU     57.10s WALL (       1 calls)

     Called by init_run:
     wfcinit      :      7.99s CPU      8.15s WALL (       1 calls)
     wfcinit:atom :      0.14s CPU      0.14s WALL (      12 calls)
     wfcinit:wfcr :      7.50s CPU      7.64s WALL (      12 calls)
     potinit      :      1.23s CPU      1.26s WALL (       1 calls)
     hinit0       :      1.26s CPU      1.32s WALL (       1 calls)

     Called by electrons:
     c_bands      :    418.25s CPU    423.24s WALL (      15 calls)
     sum_band     :     35.56s CPU     35.92s WALL (      15 calls)
     v_of_rho     :      8.71s CPU      8.80s WALL (      16 calls)
     v_h          :      0.50s CPU      0.51s WALL (      16 calls)
     v_xc         :      9.21s CPU      9.32s WALL (      18 calls)
     mix_rho      :     39.90s CPU     40.20s WALL (      15 calls)

     Called by c_bands:
     init_us_2    :      5.33s CPU      5.36s WALL (     396 calls)
     init_us_2:cp :      5.33s CPU      5.36s WALL (     396 calls)
     cegterg      :    402.98s CPU    406.68s WALL (     180 calls)

     Called by sum_band:
     sum_band:wei :      0.10s CPU      0.10s WALL (      15 calls)
     sum_band:loo :     33.98s CPU     34.32s WALL (      15 calls)
     sum_band:buf :      1.70s CPU      1.73s WALL (     180 calls)
     sum_band:ini :      2.41s CPU      2.42s WALL (     180 calls)

     Called by *egterg:
     cdiaghg      :     37.25s CPU     37.96s WALL (    1141 calls)
     cegterg:over :     38.86s CPU     39.06s WALL (     961 calls)
     cegterg:upda :     64.05s CPU     64.48s WALL (     961 calls)
     cegterg:last :     68.04s CPU     68.44s WALL (     356 calls)
     cdiaghg:chol :      1.31s CPU      1.35s WALL (    1141 calls)
     cdiaghg:inve :      1.12s CPU      1.15s WALL (    1141 calls)
     cdiaghg:para :      1.69s CPU      1.71s WALL (    2282 calls)
     h_psi        :    183.12s CPU    185.08s WALL (    1153 calls)
     g_psi        :      1.46s CPU      1.47s WALL (     961 calls)

     Called by h_psi:
     h_psi:calbec :     31.49s CPU     31.67s WALL (    1153 calls)
     vloc_psi     :    121.67s CPU    123.31s WALL (    1153 calls)
     add_vuspsi   :     26.27s CPU     26.39s WALL (    1153 calls)

     General routines
     calbec       :     35.78s CPU     35.98s WALL (    1213 calls)
     fft          :      8.19s CPU      8.28s WALL (     404 calls)
     ffts         :     16.51s CPU     16.64s WALL (    8868 calls)
     fftw         :    126.12s CPU    127.69s WALL (  234300 calls)
     interpolate  :      0.71s CPU      0.71s WALL (      32 calls)
 
     Parallel routines
 
     PWSCF        :   9m50.24s CPU  10m 9.24s WALL

 
   This run was terminated on:  23:38:19  20Mar2022            

=------------------------------------------------------------------------------=
   JOB DONE.
=------------------------------------------------------------------------------=
