
     Program PWSCF v.7.0 starts on 21Mar2022 at  3: 0:12 

     This program is part of the open-source Quantum ESPRESSO suite
     for quantum simulation of materials; please cite
         "P. Giannozzi et al., J. Phys.:Condens. Matter 21 395502 (2009);
         "P. Giannozzi et al., J. Phys.:Condens. Matter 29 465901 (2017);
         "P. Giannozzi et al., J. Chem. Phys. 152 154105 (2020);
          URL http://www.quantum-espresso.org", 
     in publications or presentations arising from this work. More details at
     http://www.quantum-espresso.org/quote

     Parallel version (MPI), running on    90 processors

     MPI processes distributed on     1 nodes
     R & G space division:  proc/nbgrp/npool/nimage =      90
     183162 MiB available memory on the printing compute node when the environment starts
 
     Reading input from base.in
Warning: card &CELL ignored
Warning: card / ignored

     Current dimensions of program PWSCF are:
     Max number of different atomic species (ntypx) = 10
     Max number of k-points (npk) =  40000
     Max angular momentum in pseudopotentials (lmaxx) =  4
     Found identity + ( -0.5000  0.0000  0.0000) symmetry
     This is a supercell, fractional translations are disabled
     Message from routine setup:
     using ibrav=0 with symmetry is DISCOURAGED, use correct ibrav instead

     Subspace diagonalization in iterative solution of the eigenvalue problem:
     one sub-group per band group will be used
     scalapack distributed-memory algorithm (size of sub-group:  9*  9 procs)

 
     Parallelization info
     --------------------
     sticks:   dense  smooth     PW     G-vecs:    dense   smooth      PW
     Min         119      39     10                62737    12039    1676
     Max         120      40     11                62810    12104    1727
     Sum       10797    3593    973              5650301  1087197  153831
 
     Using Slab Decomposition
 


     bravais-lattice index     =            0
     lattice parameter (alat)  =      10.7434  a.u.
     unit-cell volume          =    8296.9641 (a.u.)^3
     number of atoms/cell      =           20
     number of atomic types    =            2
     number of electrons       =       376.00
     number of Kohn-Sham states=          226
     kinetic-energy cutoff     =      98.0000  Ry
     charge density cutoff     =    1176.0000  Ry
     scf convergence threshold =      4.0E-09
     mixing beta               =       0.7000
     number of iterations used =            8  local-TF  mixing
     energy convergence thresh.=      2.0E-04
     force convergence thresh. =      1.0E-04
     Exchange-correlation= PBESOL
                           (   1   4  10   8   0   0   0)
     nstep                     =           50


     celldm(1)=  10.743355  celldm(2)=   0.000000  celldm(3)=   0.000000
     celldm(4)=   0.000000  celldm(5)=   0.000000  celldm(6)=   0.000000

     crystal axes: (cart. coord. in units of alat)
               a(1) = (   1.000000   0.000000   0.000000 )  
               a(2) = (   0.000000   1.000000   0.000000 )  
               a(3) = (   0.000000   0.000000   6.691130 )  

     reciprocal axes: (cart. coord. in units 2 pi/alat)
               b(1) = (  1.000000  0.000000  0.000000 )  
               b(2) = (  0.000000  1.000000  0.000000 )  
               b(3) = (  0.000000  0.000000  0.149452 )  


     PseudoPot. # 1 for Ag read from file:
     ../pseudo/Ag.upf
     MD5 check sum: ad830d0ddad01bb1c4c3455ef2da8ae5
     Pseudo is Norm-conserving + core correction, Zval = 19.0
     Generated using ONCVPSP code by D. R. Hamann
     Using radial grid of 1538 points,  6 beta functions with: 
                l(1) =   0
                l(2) =   0
                l(3) =   1
                l(4) =   1
                l(5) =   2
                l(6) =   2

     PseudoPot. # 2 for Ni read from file:
     ../pseudo/Ni.upf
     MD5 check sum: 3ec56ad6bf78c9cc1bbec815420e1c7d
     Pseudo is Norm-conserving + core correction, Zval = 18.0
     Generated using ONCVPSP code by D. R. Hamann
     Using radial grid of 1356 points,  6 beta functions with: 
                l(1) =   0
                l(2) =   0
                l(3) =   1
                l(4) =   1
                l(5) =   2
                l(6) =   2

     atomic species   valence    mass     pseudopotential
        Ag            19.00   107.86820     Ag( 1.00)
        Ni            18.00    58.69340     Ni( 1.00)

     Starting magnetic structure 
     atomic species   magnetization
        Ag           0.100
        Ni           0.278

      8 Sym. Ops. (no inversion) found


                                    s                        frac. trans.

      isym =  1     identity                                     

 cryst.   s( 1) = (     1          0          0      )
                  (     0          1          0      )
                  (     0          0          1      )

 cart.    s( 1) = (  1.0000000  0.0000000  0.0000000 )
                  (  0.0000000  1.0000000  0.0000000 )
                  (  0.0000000  0.0000000  1.0000000 )


      isym =  2     180 deg rotation - cart. axis [0,0,1]        

 cryst.   s( 2) = (    -1          0          0      )
                  (     0         -1          0      )
                  (     0          0          1      )

 cart.    s( 2) = ( -1.0000000  0.0000000  0.0000000 )
                  (  0.0000000 -1.0000000  0.0000000 )
                  (  0.0000000  0.0000000  1.0000000 )


      isym =  3      90 deg rotation - cart. axis [0,0,-1]       

 cryst.   s( 3) = (     0         -1          0      )
                  (     1          0          0      )
                  (     0          0          1      )

 cart.    s( 3) = (  0.0000000  1.0000000  0.0000000 )
                  ( -1.0000000  0.0000000  0.0000000 )
                  (  0.0000000  0.0000000  1.0000000 )


      isym =  4      90 deg rotation - cart. axis [0,0,1]        

 cryst.   s( 4) = (     0          1          0      )
                  (    -1          0          0      )
                  (     0          0          1      )

 cart.    s( 4) = (  0.0000000 -1.0000000  0.0000000 )
                  (  1.0000000  0.0000000  0.0000000 )
                  (  0.0000000  0.0000000  1.0000000 )


      isym =  5     inv. 180 deg rotation - cart. axis [0,1,0]   

 cryst.   s( 5) = (     1          0          0      )
                  (     0         -1          0      )
                  (     0          0          1      )

 cart.    s( 5) = (  1.0000000  0.0000000  0.0000000 )
                  (  0.0000000 -1.0000000  0.0000000 )
                  (  0.0000000  0.0000000  1.0000000 )


      isym =  6     inv. 180 deg rotation - cart. axis [1,0,0]   

 cryst.   s( 6) = (    -1          0          0      )
                  (     0          1          0      )
                  (     0          0          1      )

 cart.    s( 6) = ( -1.0000000  0.0000000  0.0000000 )
                  (  0.0000000  1.0000000  0.0000000 )
                  (  0.0000000  0.0000000  1.0000000 )


      isym =  7     inv. 180 deg rotation - cart. axis [1,1,0]   

 cryst.   s( 7) = (     0         -1          0      )
                  (    -1          0          0      )
                  (     0          0          1      )

 cart.    s( 7) = (  0.0000000 -1.0000000  0.0000000 )
                  ( -1.0000000  0.0000000  0.0000000 )
                  (  0.0000000  0.0000000  1.0000000 )


      isym =  8     inv. 180 deg rotation - cart. axis [1,-1,0]  

 cryst.   s( 8) = (     0          1          0      )
                  (     1          0          0      )
                  (     0          0          1      )

 cart.    s( 8) = (  0.0000000  1.0000000  0.0000000 )
                  (  1.0000000  0.0000000  0.0000000 )
                  (  0.0000000  0.0000000  1.0000000 )


   Cartesian axes

     site n.     atom                  positions (alat units)
         1           Ag  tau(   1) = (   0.0000000   0.0000000   2.6384581  )
         2           Ag  tau(   2) = (   0.5000000   0.0000000   2.6384581  )
         3           Ag  tau(   3) = (   0.0000000   0.5000000   2.6384581  )
         4           Ag  tau(   4) = (   0.5000000   0.5000000   2.6384581  )
         5           Ag  tau(   5) = (   0.2500000   0.2500000   2.9861117  )
         6           Ag  tau(   6) = (   0.7500000   0.2500000   2.9861117  )
         7           Ag  tau(   7) = (   0.2500000   0.7500000   2.9861117  )
         8           Ag  tau(   8) = (   0.7500000   0.7500000   2.9861117  )
         9           Ag  tau(   9) = (   0.0000000   0.0000000   3.3455743  )
        10           Ag  tau(  10) = (   0.5000000   0.0000000   3.3455743  )
        11           Ag  tau(  11) = (   0.0000000   0.5000000   3.3455743  )
        12           Ag  tau(  12) = (   0.5000000   0.5000000   3.3455743  )
        13           Ni  tau(  13) = (   0.2500000   0.2500000   3.7051508  )
        14           Ni  tau(  14) = (   0.7500000   0.2500000   3.7051508  )
        15           Ni  tau(  15) = (   0.2500000   0.7500000   3.7051508  )
        16           Ni  tau(  16) = (   0.7500000   0.7500000   3.7051508  )
        17           Ag  tau(  17) = (   0.0000000   0.0000000   4.0558590  )
        18           Ag  tau(  18) = (   0.5000000   0.0000000   4.0558590  )
        19           Ag  tau(  19) = (   0.0000000   0.5000000   4.0558590  )
        20           Ag  tau(  20) = (   0.5000000   0.5000000   4.0558590  )

   Crystallographic axes

     site n.     atom                  positions (cryst. coord.)
         1           Ag  tau(   1) = (  0.0000000  0.0000000  0.3943218  )
         2           Ag  tau(   2) = (  0.5000000  0.0000000  0.3943218  )
         3           Ag  tau(   3) = (  0.0000000  0.5000000  0.3943218  )
         4           Ag  tau(   4) = (  0.5000000  0.5000000  0.3943218  )
         5           Ag  tau(   5) = (  0.2500000  0.2500000  0.4462791  )
         6           Ag  tau(   6) = (  0.7500000  0.2500000  0.4462791  )
         7           Ag  tau(   7) = (  0.2500000  0.7500000  0.4462791  )
         8           Ag  tau(   8) = (  0.7500000  0.7500000  0.4462791  )
         9           Ag  tau(   9) = (  0.0000000  0.0000000  0.5000014  )
        10           Ag  tau(  10) = (  0.5000000  0.0000000  0.5000014  )
        11           Ag  tau(  11) = (  0.0000000  0.5000000  0.5000014  )
        12           Ag  tau(  12) = (  0.5000000  0.5000000  0.5000014  )
        13           Ni  tau(  13) = (  0.2500000  0.2500000  0.5537407  )
        14           Ni  tau(  14) = (  0.7500000  0.2500000  0.5537407  )
        15           Ni  tau(  15) = (  0.2500000  0.7500000  0.5537407  )
        16           Ni  tau(  16) = (  0.7500000  0.7500000  0.5537407  )
        17           Ag  tau(  17) = (  0.0000000  0.0000000  0.6061546  )
        18           Ag  tau(  18) = (  0.5000000  0.0000000  0.6061546  )
        19           Ag  tau(  19) = (  0.0000000  0.5000000  0.6061546  )
        20           Ag  tau(  20) = (  0.5000000  0.5000000  0.6061546  )

     number of k points=     6  Marzari-Vanderbilt smearing, width (Ry)=  0.0220
                       cart. coord. in units 2pi/alat
        k(    1) = (   0.0000000   0.0000000   0.0000000), wk =   0.0625000
        k(    2) = (   0.0000000   0.2500000   0.0000000), wk =   0.2500000
        k(    3) = (   0.0000000  -0.5000000   0.0000000), wk =   0.1250000
        k(    4) = (   0.2500000   0.2500000   0.0000000), wk =   0.2500000
        k(    5) = (   0.2500000  -0.5000000   0.0000000), wk =   0.2500000
        k(    6) = (  -0.5000000  -0.5000000   0.0000000), wk =   0.0625000

                       cryst. coord.
        k(    1) = (   0.0000000   0.0000000   0.0000000), wk =   0.0625000
        k(    2) = (   0.0000000   0.2500000   0.0000000), wk =   0.2500000
        k(    3) = (   0.0000000  -0.5000000   0.0000000), wk =   0.1250000
        k(    4) = (   0.2500000   0.2500000   0.0000000), wk =   0.2500000
        k(    5) = (   0.2500000  -0.5000000   0.0000000), wk =   0.2500000
        k(    6) = (  -0.5000000  -0.5000000   0.0000000), wk =   0.0625000

     Dense  grid:  5650301 G-vectors     FFT dimensions: ( 120, 120, 800)

     Smooth grid:  1087197 G-vectors     FFT dimensions: (  72,  72, 480)

     Dynamical RAM for                 wfc:       5.21 MB

     Dynamical RAM for     wfc (w. buffer):      67.69 MB

     Dynamical RAM for           str. fact:       1.92 MB

     Dynamical RAM for           local pot:       0.00 MB

     Dynamical RAM for          nlocal pot:       8.29 MB

     Dynamical RAM for                qrad:       5.50 MB

     Dynamical RAM for          rho,v,vnew:      11.68 MB

     Dynamical RAM for               rhoin:       3.89 MB

     Dynamical RAM for            rho*nmix:      30.66 MB

     Dynamical RAM for           G-vectors:       3.69 MB

     Dynamical RAM for          h,s,v(r/c):       0.11 MB

     Dynamical RAM for          <psi|beta>:       1.24 MB

     Dynamical RAM for                 psi:      10.41 MB

     Dynamical RAM for                hpsi:      10.41 MB

     Dynamical RAM for      wfcinit/wfcrot:      11.59 MB

     Estimated static dynamical RAM per process >     111.47 MB

     Estimated max dynamical RAM per process >     168.24 MB

     Estimated total dynamical RAM >      14.79 GB

     Atomic positions and unit cell read from directory:
     ../out/alloy_100.save/
 
     Generating pointlists ...
     new r_m :   0.2045 (alat units)  2.1974 (a.u.) for type    1
     new r_m :   0.2054 (alat units)  2.2069 (a.u.) for type    2

     The initial density is read from file :
     ../out/alloy_100.save/charge-density

     Starting wfcs from file

     total cpu time spent up to now is       25.5 secs

     Self-consistent Calculation

     iteration #  1     ecut=    98.00 Ry     beta= 0.70
     Davidson diagonalization with overlap

---- Real-time Memory Report at c_bands before calling an iterative solver
           187 MiB given to the printing process from OS
             0 MiB allocation reported by mallinfo(arena+hblkhd)
        165587 MiB available memory on the node where the printing process lives
------------------
     ethr =  1.00E-05,  avg # of iterations =  8.9

     Threshold (ethr) on eigenvalues was too large:
     Diagonalizing with lowered threshold

     Davidson diagonalization with overlap

---- Real-time Memory Report at c_bands before calling an iterative solver
           240 MiB given to the printing process from OS
             0 MiB allocation reported by mallinfo(arena+hblkhd)
        160362 MiB available memory on the node where the printing process lives
------------------
     ethr =  8.66E-07,  avg # of iterations =  1.0

     negative rho (up, down):  4.433E-06 4.271E-06

     total cpu time spent up to now is       96.2 secs

     total energy              =   -6297.32127889 Ry
     estimated scf accuracy    <       0.00326610 Ry

     total magnetization       =     2.10 Bohr mag/cell
     absolute magnetization    =     2.51 Bohr mag/cell

     iteration #  2     ecut=    98.00 Ry     beta= 0.70
     Davidson diagonalization with overlap

---- Real-time Memory Report at c_bands before calling an iterative solver
           244 MiB given to the printing process from OS
             0 MiB allocation reported by mallinfo(arena+hblkhd)
        160194 MiB available memory on the node where the printing process lives
------------------
     ethr =  8.69E-07,  avg # of iterations =  3.0

     negative rho (up, down):  1.768E-05 1.741E-05

     total cpu time spent up to now is      152.8 secs

     total energy              =   -6297.32114688 Ry
     estimated scf accuracy    <       0.00170552 Ry

     total magnetization       =     2.21 Bohr mag/cell
     absolute magnetization    =     2.60 Bohr mag/cell

     iteration #  3     ecut=    98.00 Ry     beta= 0.70
     Davidson diagonalization with overlap

---- Real-time Memory Report at c_bands before calling an iterative solver
           248 MiB given to the printing process from OS
             0 MiB allocation reported by mallinfo(arena+hblkhd)
        159996 MiB available memory on the node where the printing process lives
------------------
     ethr =  4.54E-07,  avg # of iterations =  2.5

     negative rho (up, down):  4.840E-05 4.805E-05

     total cpu time spent up to now is      186.4 secs

     total energy              =   -6297.32122207 Ry
     estimated scf accuracy    <       0.00476705 Ry

     total magnetization       =     2.06 Bohr mag/cell
     absolute magnetization    =     2.47 Bohr mag/cell

     iteration #  4     ecut=    98.00 Ry     beta= 0.70
     Davidson diagonalization with overlap

---- Real-time Memory Report at c_bands before calling an iterative solver
           248 MiB given to the printing process from OS
             0 MiB allocation reported by mallinfo(arena+hblkhd)
        159973 MiB available memory on the node where the printing process lives
------------------
     ethr =  4.54E-07,  avg # of iterations =  3.2

     negative rho (up, down):  5.515E-05 5.491E-05

     total cpu time spent up to now is      217.5 secs

     total energy              =   -6297.32132860 Ry
     estimated scf accuracy    <       0.00005140 Ry

     total magnetization       =     2.16 Bohr mag/cell
     absolute magnetization    =     2.56 Bohr mag/cell

     iteration #  5     ecut=    98.00 Ry     beta= 0.70
     Davidson diagonalization with overlap

---- Real-time Memory Report at c_bands before calling an iterative solver
           249 MiB given to the printing process from OS
             0 MiB allocation reported by mallinfo(arena+hblkhd)
        159937 MiB available memory on the node where the printing process lives
------------------
     ethr =  1.37E-08,  avg # of iterations =  1.8

     negative rho (up, down):  4.788E-05 4.769E-05

     total cpu time spent up to now is      255.8 secs

     total energy              =   -6297.32132915 Ry
     estimated scf accuracy    <       0.00000907 Ry

     total magnetization       =     2.15 Bohr mag/cell
     absolute magnetization    =     2.55 Bohr mag/cell

     iteration #  6     ecut=    98.00 Ry     beta= 0.70
     Davidson diagonalization with overlap

---- Real-time Memory Report at c_bands before calling an iterative solver
           252 MiB given to the printing process from OS
             0 MiB allocation reported by mallinfo(arena+hblkhd)
        159286 MiB available memory on the node where the printing process lives
------------------
     ethr =  2.41E-09,  avg # of iterations =  1.0

     negative rho (up, down):  3.290E-05 3.277E-05

     total cpu time spent up to now is      283.3 secs

     total energy              =   -6297.32132952 Ry
     estimated scf accuracy    <       0.00000028 Ry

     total magnetization       =     2.15 Bohr mag/cell
     absolute magnetization    =     2.55 Bohr mag/cell

     iteration #  7     ecut=    98.00 Ry     beta= 0.70
     Davidson diagonalization with overlap

---- Real-time Memory Report at c_bands before calling an iterative solver
           252 MiB given to the printing process from OS
             0 MiB allocation reported by mallinfo(arena+hblkhd)
        159283 MiB available memory on the node where the printing process lives
------------------
     ethr =  7.34E-11,  avg # of iterations =  2.0

     negative rho (up, down):  1.662E-05 1.656E-05

     total cpu time spent up to now is      317.0 secs

     total energy              =   -6297.32132944 Ry
     estimated scf accuracy    <       0.00000011 Ry

     total magnetization       =     2.15 Bohr mag/cell
     absolute magnetization    =     2.55 Bohr mag/cell

     iteration #  8     ecut=    98.00 Ry     beta= 0.70
     Davidson diagonalization with overlap

---- Real-time Memory Report at c_bands before calling an iterative solver
           253 MiB given to the printing process from OS
             0 MiB allocation reported by mallinfo(arena+hblkhd)
        159275 MiB available memory on the node where the printing process lives
------------------
     ethr =  2.98E-11,  avg # of iterations =  3.2

     negative rho (up, down):  7.127E-06 7.105E-06

     total cpu time spent up to now is      351.8 secs

     total energy              =   -6297.32132948 Ry
     estimated scf accuracy    <       0.00000002 Ry

     total magnetization       =     2.15 Bohr mag/cell
     absolute magnetization    =     2.55 Bohr mag/cell

     iteration #  9     ecut=    98.00 Ry     beta= 0.70
     Davidson diagonalization with overlap

---- Real-time Memory Report at c_bands before calling an iterative solver
           253 MiB given to the printing process from OS
             0 MiB allocation reported by mallinfo(arena+hblkhd)
        159262 MiB available memory on the node where the printing process lives
------------------
     ethr =  4.37E-12,  avg # of iterations =  3.2
 
     Magnetic moment per site  (integrated on atomic sphere of radius R)
     atom   1 (R=0.205)  charge= 17.5220  magn=  0.0027
     atom   2 (R=0.205)  charge= 17.5220  magn=  0.0027
     atom   3 (R=0.205)  charge= 17.5220  magn=  0.0027
     atom   4 (R=0.205)  charge= 17.5220  magn=  0.0027
     atom   5 (R=0.205)  charge= 17.5706  magn= -0.0003
     atom   6 (R=0.205)  charge= 17.5706  magn= -0.0003
     atom   7 (R=0.205)  charge= 17.5706  magn= -0.0003
     atom   8 (R=0.205)  charge= 17.5706  magn= -0.0003
     atom   9 (R=0.205)  charge= 17.5274  magn= -0.0033
     atom  10 (R=0.205)  charge= 17.5274  magn= -0.0033
     atom  11 (R=0.205)  charge= 17.5274  magn= -0.0033
     atom  12 (R=0.205)  charge= 17.5274  magn= -0.0033
     atom  13 (R=0.205)  charge= 17.0568  magn=  0.5694
     atom  14 (R=0.205)  charge= 17.0568  magn=  0.5694
     atom  15 (R=0.205)  charge= 17.0568  magn=  0.5694
     atom  16 (R=0.205)  charge= 17.0568  magn=  0.5694
     atom  17 (R=0.205)  charge= 17.4773  magn= -0.0023
     atom  18 (R=0.205)  charge= 17.4773  magn= -0.0023
     atom  19 (R=0.205)  charge= 17.4773  magn= -0.0023
     atom  20 (R=0.205)  charge= 17.4773  magn= -0.0023

     total cpu time spent up to now is      378.7 secs

     End of self-consistent calculation

 ------ SPIN UP ------------


          k = 0.0000 0.0000 0.0000 (135767 PWs)   bands (ev):

  -101.2021-101.2005-101.2005-101.1988 -90.8208 -90.8130 -90.8130 -90.8056
   -90.5723 -90.5652 -90.5652 -90.5579 -90.5172 -90.5100 -90.5100 -90.5027
   -90.1810 -90.1737 -90.1737 -90.1664 -61.8170 -61.8170 -61.8149 -61.8149
   -61.7924 -61.7924 -61.7906 -61.7906 -61.6339 -61.6318 -61.6318 -61.6297
   -54.3869 -54.3869 -54.3736 -54.3736 -54.3310 -54.3207 -54.3207 -54.2969
   -54.2756 -54.2756 -54.2646 -54.2646 -54.1140 -54.1140 -54.1070 -54.1070
   -54.0725 -54.0725 -54.0685 -54.0685 -54.0558 -54.0488 -54.0488 -54.0434
   -54.0141 -54.0141 -54.0070 -54.0070 -54.0052 -54.0001 -54.0001 -53.9967
   -53.9756 -53.9756 -53.9690 -53.9690 -53.7439 -53.7439 -53.7341 -53.7341
   -53.6600 -53.6509 -53.6509 -53.6420 -53.6399 -53.6399 -53.6318 -53.6318
    -6.3002  -5.2596  -5.1914  -5.0756  -5.0586  -5.0586  -5.0195  -4.9956
    -4.9956  -4.9452  -4.8970  -4.8970  -4.5059  -4.4171  -4.3431  -4.0565
    -4.0565  -4.0116  -4.0116  -4.0112  -3.9794  -3.8592  -3.8065  -3.8065
    -3.7980  -3.6740  -3.6740  -3.6536  -3.6536  -3.5997  -3.5997  -3.5203
    -3.5203  -3.4448  -3.4448  -3.3536  -3.3536  -3.3520  -3.3520  -3.1918
    -3.1918  -3.1817  -3.1817  -2.7424  -2.7424  -2.6999  -2.6782  -2.5027
    -2.5027  -2.4700  -2.4700  -2.3987  -2.3987  -2.3955  -2.3712  -2.3712
    -2.3145  -2.3145  -2.2941  -2.2391  -2.2391  -2.1726  -2.0587  -2.0583
    -2.0583  -2.0001  -2.0001  -1.9406  -1.9406  -1.9214  -1.9214  -1.9196
    -1.8861  -1.8281  -1.8281  -1.7308  -1.7308  -1.7241  -1.5567  -1.5242
    -1.2496  -1.2403  -0.8965  -0.8646  -0.7482  -0.7482  -0.7179  -0.4959
    -0.3950  -0.3950  -0.2321  -0.2321  -0.0133  -0.0133   0.0483   0.2330
     0.2330   0.4655   0.4655   0.5040   0.5040   0.5500   0.5546   0.8053
     0.8053   0.8577   1.1364   1.1364   1.2439   1.2439   1.3252   1.3252
     1.4866   1.8348   1.8348   2.6896   3.5992   3.5992   4.2037   4.2037
     4.5417   4.5417   5.0788   5.0788   5.4283   5.5362   5.7041   5.9760
     5.9760   6.0705   6.4323   6.6969   6.6969   7.0246   7.0248   7.0248
     7.4850   7.8315   7.9375   7.9375   8.2243   8.3036   8.4458   8.6441
     8.7700   8.9443

     occupation numbers 
     1.0000   1.0000   1.0000   1.0000   1.0000   1.0000   1.0000   1.0000
     1.0000   1.0000   1.0000   1.0000   1.0000   1.0000   1.0000   1.0000
     1.0000   1.0000   1.0000   1.0000   1.0000   1.0000   1.0000   1.0000
     1.0000   1.0000   1.0000   1.0000   1.0000   1.0000   1.0000   1.0000
     1.0000   1.0000   1.0000   1.0000   1.0000   1.0000   1.0000   1.0000
     1.0000   1.0000   1.0000   1.0000   1.0000   1.0000   1.0000   1.0000
     1.0000   1.0000   1.0000   1.0000   1.0000   1.0000   1.0000   1.0000
     1.0000   1.0000   1.0000   1.0000   1.0000   1.0000   1.0000   1.0000
     1.0000   1.0000   1.0000   1.0000   1.0000   1.0000   1.0000   1.0000
     1.0000   1.0000   1.0000   1.0000   1.0000   1.0000   1.0000   1.0000
     1.0000   1.0000   1.0000   1.0000   1.0000   1.0000   1.0000   1.0000
     1.0000   1.0000   1.0000   1.0000   1.0000   1.0000   1.0000   1.0000
     1.0000   1.0000   1.0000   1.0000   1.0000   1.0000   1.0000   1.0000
     1.0000   1.0000   1.0000   1.0000   1.0000   1.0000   1.0000   1.0000
     1.0000   1.0000   1.0000   1.0000   1.0000   1.0000   1.0000   1.0000
     1.0000   1.0000   1.0000   1.0000   1.0000   1.0000   1.0000   1.0000
     1.0000   1.0000   1.0000   1.0000   1.0000   1.0000   1.0000   1.0000
     1.0000   1.0000   1.0000   1.0000   1.0000   1.0000   1.0000   1.0000
     1.0000   1.0000   1.0000   1.0000   1.0000   1.0000   1.0000   1.0000
     1.0000   1.0000   1.0000   1.0000   1.0000   1.0000   1.0000   1.0000
     1.0000   1.0000   1.0000   1.0000   1.0000   1.0000   1.0000   1.0000
     1.0000   1.0000   1.0000   1.0000   1.0000   1.0000   1.0000   1.0007
     1.0007   1.0147   1.0147   1.0215   1.0215   1.0321   1.0333   1.0765
     1.0765   1.0487   0.5088   0.5088   0.2705   0.2705   0.1442   0.1442
     0.0276   0.0001   0.0001   0.0000   0.0000   0.0000   0.0000   0.0000
     0.0000   0.0000   0.0000   0.0000   0.0000   0.0000   0.0000   0.0000
     0.0000   0.0000   0.0000   0.0000   0.0000   0.0000   0.0000   0.0000
     0.0000   0.0000   0.0000   0.0000   0.0000   0.0000   0.0000   0.0000
     0.0000   0.0000

          k = 0.0000 0.2500 0.0000 (135906 PWs)   bands (ev):

  -101.2019-101.2007-101.2002-101.1991 -90.8196 -90.8141 -90.8119 -90.8067
   -90.5713 -90.5662 -90.5641 -90.5590 -90.5161 -90.5111 -90.5089 -90.5037
   -90.1799 -90.1747 -90.1726 -90.1674 -61.8167 -61.8152 -61.8134 -61.8113
   -61.7960 -61.7941 -61.7921 -61.7908 -61.6336 -61.6321 -61.6315 -61.6300
   -54.3847 -54.3753 -54.3710 -54.3580 -54.3289 -54.3214 -54.3174 -54.3005
   -54.2925 -54.2811 -54.2740 -54.2662 -54.1123 -54.1075 -54.0996 -54.0926
   -54.0720 -54.0692 -54.0605 -54.0544 -54.0543 -54.0480 -54.0479 -54.0439
   -54.0293 -54.0218 -54.0131 -54.0081 -54.0043 -54.0009 -53.9997 -53.9972
   -53.9901 -53.9837 -53.9746 -53.9700 -53.7425 -53.7355 -53.7287 -53.7192
   -53.6587 -53.6552 -53.6522 -53.6496 -53.6468 -53.6433 -53.6387 -53.6330
    -5.9893  -5.0758  -5.0554  -5.0241  -4.9077  -4.8997  -4.8793  -4.8392
    -4.8377  -4.8102  -4.8033  -4.7749  -4.3708  -4.3121  -4.2377  -4.1271
    -4.1184  -3.9929  -3.9368  -3.8690  -3.8639  -3.8535  -3.7836  -3.7661
    -3.7279  -3.7204  -3.7091  -3.6376  -3.5753  -3.5549  -3.5305  -3.4356
    -3.4280  -3.4230  -3.3497  -3.3408  -3.3292  -3.3191  -3.3045  -3.3044
    -3.2271  -3.0849  -3.0423  -2.9569  -2.8552  -2.7751  -2.7262  -2.7262
    -2.7138  -2.6290  -2.5843  -2.5452  -2.4746  -2.4268  -2.3864  -2.3757
    -2.3703  -2.3142  -2.2770  -2.2649  -2.2641  -2.2605  -2.2401  -2.2297
    -2.1901  -2.1391  -2.1322  -2.1158  -2.0364  -2.0224  -2.0035  -1.9620
    -1.8636  -1.8310  -1.8058  -1.8053  -1.7704  -1.7682  -1.6903  -1.6595
    -1.6576  -1.4992  -1.4631  -1.3297  -1.1998  -0.7573  -0.6280  -0.5806
    -0.4835  -0.4737  -0.4030  -0.2763  -0.0365  -0.0209   0.0145   0.0222
     0.0876   0.2751   0.2904   0.3717   0.4767   0.4778   0.4849   0.5023
     0.5038   0.5123   0.6563   1.2241   1.4772   1.7829   1.9400   1.9927
     2.2336   2.3080   2.9698   2.9731   3.3441   3.6611   4.1605   4.2142
     4.3974   4.7459   4.8244   4.9492   5.7173   5.7330   5.8379   5.9030
     5.9922   6.1225   6.3694   6.6234   6.7018   6.7149   6.9480   7.3141
     7.3222   7.6726   7.7539   7.9714   8.0803   8.1157   8.2913   8.3969
     8.5958   8.8334

     occupation numbers 
     1.0000   1.0000   1.0000   1.0000   1.0000   1.0000   1.0000   1.0000
     1.0000   1.0000   1.0000   1.0000   1.0000   1.0000   1.0000   1.0000
     1.0000   1.0000   1.0000   1.0000   1.0000   1.0000   1.0000   1.0000
     1.0000   1.0000   1.0000   1.0000   1.0000   1.0000   1.0000   1.0000
     1.0000   1.0000   1.0000   1.0000   1.0000   1.0000   1.0000   1.0000
     1.0000   1.0000   1.0000   1.0000   1.0000   1.0000   1.0000   1.0000
     1.0000   1.0000   1.0000   1.0000   1.0000   1.0000   1.0000   1.0000
     1.0000   1.0000   1.0000   1.0000   1.0000   1.0000   1.0000   1.0000
     1.0000   1.0000   1.0000   1.0000   1.0000   1.0000   1.0000   1.0000
     1.0000   1.0000   1.0000   1.0000   1.0000   1.0000   1.0000   1.0000
     1.0000   1.0000   1.0000   1.0000   1.0000   1.0000   1.0000   1.0000
     1.0000   1.0000   1.0000   1.0000   1.0000   1.0000   1.0000   1.0000
     1.0000   1.0000   1.0000   1.0000   1.0000   1.0000   1.0000   1.0000
     1.0000   1.0000   1.0000   1.0000   1.0000   1.0000   1.0000   1.0000
     1.0000   1.0000   1.0000   1.0000   1.0000   1.0000   1.0000   1.0000
     1.0000   1.0000   1.0000   1.0000   1.0000   1.0000   1.0000   1.0000
     1.0000   1.0000   1.0000   1.0000   1.0000   1.0000   1.0000   1.0000
     1.0000   1.0000   1.0000   1.0000   1.0000   1.0000   1.0000   1.0000
     1.0000   1.0000   1.0000   1.0000   1.0000   1.0000   1.0000   1.0000
     1.0000   1.0000   1.0000   1.0000   1.0000   1.0000   1.0000   1.0000
     1.0000   1.0000   1.0000   1.0000   1.0000   1.0000   1.0000   1.0000
     1.0000   1.0000   1.0000   1.0000   1.0000   1.0000   1.0000   1.0000
     1.0001   1.0013   1.0016   1.0050   1.0165   1.0167   1.0179   1.0212
     1.0215   1.0232   1.0639   0.3091   0.0309   0.0003   0.0000   0.0000
     0.0000   0.0000   0.0000   0.0000   0.0000   0.0000   0.0000   0.0000
     0.0000   0.0000   0.0000   0.0000   0.0000   0.0000   0.0000   0.0000
     0.0000   0.0000   0.0000   0.0000   0.0000   0.0000   0.0000   0.0000
     0.0000   0.0000   0.0000   0.0000   0.0000   0.0000   0.0000   0.0000
     0.0000   0.0000

          k = 0.0000-0.5000 0.0000 (135922 PWs)   bands (ev):

  -101.2013-101.2013-101.1997-101.1997 -90.8169 -90.8169 -90.8093 -90.8093
   -90.5688 -90.5688 -90.5615 -90.5615 -90.5136 -90.5136 -90.5063 -90.5063
   -90.1773 -90.1773 -90.1700 -90.1700 -61.8160 -61.8160 -61.8047 -61.8047
   -61.8027 -61.8027 -61.7915 -61.7915 -61.6328 -61.6328 -61.6307 -61.6307
   -54.3798 -54.3798 -54.3323 -54.3323 -54.3245 -54.3245 -54.3201 -54.3201
   -54.3090 -54.3090 -54.2701 -54.2701 -54.1093 -54.1093 -54.0707 -54.0707
   -54.0648 -54.0648 -54.0575 -54.0575 -54.0518 -54.0518 -54.0460 -54.0460
   -54.0248 -54.0248 -54.0193 -54.0193 -54.0105 -54.0105 -54.0024 -54.0024
   -53.9983 -53.9983 -53.9723 -53.9723 -53.7390 -53.7390 -53.6920 -53.6920
   -53.6831 -53.6831 -53.6554 -53.6554 -53.6464 -53.6464 -53.6358 -53.6358
    -5.3085  -5.3085  -4.8151  -4.8151  -4.7704  -4.7704  -4.7070  -4.7070
    -4.5626  -4.5626  -4.5254  -4.5254  -4.4753  -4.4753  -4.2842  -4.2842
    -4.0973  -4.0973  -4.0724  -4.0724  -3.7849  -3.7849  -3.7503  -3.7503
    -3.6074  -3.6074  -3.4674  -3.4674  -3.3961  -3.3961  -3.2688  -3.2688
    -3.2521  -3.2521  -3.1685  -3.1685  -3.1639  -3.1639  -3.0890  -3.0890
    -3.0641  -3.0641  -2.9363  -2.9363  -2.9041  -2.9041  -2.8560  -2.8560
    -2.8491  -2.8491  -2.8441  -2.8441  -2.7617  -2.7617  -2.6921  -2.6921
    -2.5542  -2.5542  -2.5132  -2.5132  -2.3852  -2.3852  -2.3642  -2.3642
    -2.3578  -2.3578  -2.2775  -2.2775  -2.1676  -2.1676  -2.0194  -2.0194
    -1.9733  -1.9733  -1.9653  -1.9653  -1.9325  -1.9325  -1.9099  -1.9099
    -1.6833  -1.6833  -1.6533  -1.6533  -1.4806  -1.4806  -0.4957  -0.4957
    -0.3277  -0.3277  -0.1390  -0.1390  -0.1100  -0.1100   0.0376   0.0376
     0.1113   0.1113   0.1137   0.1137   0.3832   0.3832   0.3863   0.3863
     0.4971   0.4971   1.1768   1.1768   2.0260   2.0260   2.0914   2.0914
     2.8818   2.8818   2.9766   2.9766   3.1369   3.1369   3.8399   3.8399
     4.7884   4.7884   4.9356   4.9356   5.7308   5.7308   6.5766   6.5766
     6.6496   6.6496   6.7413   6.7413   6.8545   6.8545   7.1041   7.1041
     7.2650   7.2650   7.5592   7.5592   7.7482   7.7482   8.1046   8.1046
     8.2404   8.2404

     occupation numbers 
     1.0000   1.0000   1.0000   1.0000   1.0000   1.0000   1.0000   1.0000
     1.0000   1.0000   1.0000   1.0000   1.0000   1.0000   1.0000   1.0000
     1.0000   1.0000   1.0000   1.0000   1.0000   1.0000   1.0000   1.0000
     1.0000   1.0000   1.0000   1.0000   1.0000   1.0000   1.0000   1.0000
     1.0000   1.0000   1.0000   1.0000   1.0000   1.0000   1.0000   1.0000
     1.0000   1.0000   1.0000   1.0000   1.0000   1.0000   1.0000   1.0000
     1.0000   1.0000   1.0000   1.0000   1.0000   1.0000   1.0000   1.0000
     1.0000   1.0000   1.0000   1.0000   1.0000   1.0000   1.0000   1.0000
     1.0000   1.0000   1.0000   1.0000   1.0000   1.0000   1.0000   1.0000
     1.0000   1.0000   1.0000   1.0000   1.0000   1.0000   1.0000   1.0000
     1.0000   1.0000   1.0000   1.0000   1.0000   1.0000   1.0000   1.0000
     1.0000   1.0000   1.0000   1.0000   1.0000   1.0000   1.0000   1.0000
     1.0000   1.0000   1.0000   1.0000   1.0000   1.0000   1.0000   1.0000
     1.0000   1.0000   1.0000   1.0000   1.0000   1.0000   1.0000   1.0000
     1.0000   1.0000   1.0000   1.0000   1.0000   1.0000   1.0000   1.0000
     1.0000   1.0000   1.0000   1.0000   1.0000   1.0000   1.0000   1.0000
     1.0000   1.0000   1.0000   1.0000   1.0000   1.0000   1.0000   1.0000
     1.0000   1.0000   1.0000   1.0000   1.0000   1.0000   1.0000   1.0000
     1.0000   1.0000   1.0000   1.0000   1.0000   1.0000   1.0000   1.0000
     1.0000   1.0000   1.0000   1.0000   1.0000   1.0000   1.0000   1.0000
     1.0000   1.0000   1.0000   1.0000   1.0000   1.0000   1.0000   1.0000
     1.0000   1.0000   1.0000   1.0000   1.0000   1.0000   1.0000   1.0000
     1.0001   1.0001   1.0001   1.0001   1.0058   1.0058   1.0060   1.0060
     1.0201   1.0201   0.4117   0.4117   0.0000   0.0000   0.0000   0.0000
     0.0000   0.0000   0.0000   0.0000   0.0000   0.0000   0.0000   0.0000
     0.0000   0.0000   0.0000   0.0000   0.0000   0.0000   0.0000   0.0000
     0.0000   0.0000   0.0000   0.0000   0.0000   0.0000   0.0000   0.0000
     0.0000   0.0000   0.0000   0.0000   0.0000   0.0000   0.0000   0.0000
     0.0000   0.0000

          k = 0.2500 0.2500 0.0000 (135950 PWs)   bands (ev):

  -101.2016-101.2005-101.2005-101.1993 -90.8185 -90.8130 -90.8130 -90.8078
   -90.5702 -90.5652 -90.5652 -90.5600 -90.5151 -90.5100 -90.5100 -90.5048
   -90.1789 -90.1737 -90.1737 -90.1685 -61.8131 -61.8131 -61.8117 -61.8116
   -61.7958 -61.7957 -61.7944 -61.7944 -61.6333 -61.6318 -61.6318 -61.6303
   -54.3690 -54.3690 -54.3602 -54.3592 -54.3267 -54.3184 -54.3184 -54.3035
   -54.2916 -54.2899 -54.2827 -54.2827 -54.0981 -54.0981 -54.0935 -54.0931
   -54.0594 -54.0594 -54.0550 -54.0550 -54.0529 -54.0476 -54.0476 -54.0447
   -54.0284 -54.0278 -54.0228 -54.0228 -54.0036 -54.0004 -54.0004 -53.9977
   -53.9893 -53.9891 -53.9847 -53.9847 -53.7273 -53.7273 -53.7208 -53.7203
   -53.6574 -53.6542 -53.6537 -53.6509 -53.6509 -53.6480 -53.6480 -53.6446
    -5.6806  -4.8778  -4.8155  -4.8155  -4.8144  -4.7779  -4.7661  -4.7661
    -4.7179  -4.7056  -4.6719  -4.6037  -4.1640  -4.1422  -4.1422  -4.0822
    -4.0436  -4.0436  -4.0361  -3.9128  -3.9128  -3.7475  -3.6850  -3.6448
    -3.6362  -3.6249  -3.5719  -3.5669  -3.5669  -3.5076  -3.5076  -3.4928
    -3.4928  -3.4739  -3.3836  -3.3836  -3.3635  -3.2037  -3.2037  -3.1335
    -3.1274  -3.1274  -3.0401  -2.9942  -2.9942  -2.9870  -2.8187  -2.7733
    -2.7199  -2.7199  -2.6687  -2.6011  -2.6011  -2.5620  -2.4880  -2.4880
    -2.4513  -2.4186  -2.3861  -2.3861  -2.3069  -2.2881  -2.2770  -2.2770
    -2.2418  -2.2327  -2.2094  -2.1873  -2.1867  -2.1550  -2.1550  -2.0652
    -2.0652  -2.0260  -1.9756  -1.8502  -1.8502  -1.8199  -1.8197  -1.7679
    -1.6413  -1.6183  -1.5498  -1.2664  -1.2664  -0.8576  -0.8576  -0.5419
    -0.5231  -0.4873  -0.4873  -0.3717  -0.3195  -0.2423  -0.2423   0.1536
     0.1536   0.1576   0.1606   0.3253   0.3253   0.4241   0.4282   0.4316
     0.5192   0.5346   0.5346   0.7814   0.9766   1.0930   1.0930   2.1496
     2.4380   2.7295   2.7295   3.6769   3.8831   4.0554   4.0554   4.9929
     5.0371   5.0371   5.2117   5.2117   5.4198   6.0050   6.1399   6.2552
     6.2799   6.6688   6.8644   6.8644   6.9656   6.9656   6.9964   7.3316
     7.6201   8.0208   8.1165   8.2510   8.2510   8.3514   8.3514   8.3787
     8.5777   8.5777

     occupation numbers 
     1.0000   1.0000   1.0000   1.0000   1.0000   1.0000   1.0000   1.0000
     1.0000   1.0000   1.0000   1.0000   1.0000   1.0000   1.0000   1.0000
     1.0000   1.0000   1.0000   1.0000   1.0000   1.0000   1.0000   1.0000
     1.0000   1.0000   1.0000   1.0000   1.0000   1.0000   1.0000   1.0000
     1.0000   1.0000   1.0000   1.0000   1.0000   1.0000   1.0000   1.0000
     1.0000   1.0000   1.0000   1.0000   1.0000   1.0000   1.0000   1.0000
     1.0000   1.0000   1.0000   1.0000   1.0000   1.0000   1.0000   1.0000
     1.0000   1.0000   1.0000   1.0000   1.0000   1.0000   1.0000   1.0000
     1.0000   1.0000   1.0000   1.0000   1.0000   1.0000   1.0000   1.0000
     1.0000   1.0000   1.0000   1.0000   1.0000   1.0000   1.0000   1.0000
     1.0000   1.0000   1.0000   1.0000   1.0000   1.0000   1.0000   1.0000
     1.0000   1.0000   1.0000   1.0000   1.0000   1.0000   1.0000   1.0000
     1.0000   1.0000   1.0000   1.0000   1.0000   1.0000   1.0000   1.0000
     1.0000   1.0000   1.0000   1.0000   1.0000   1.0000   1.0000   1.0000
     1.0000   1.0000   1.0000   1.0000   1.0000   1.0000   1.0000   1.0000
     1.0000   1.0000   1.0000   1.0000   1.0000   1.0000   1.0000   1.0000
     1.0000   1.0000   1.0000   1.0000   1.0000   1.0000   1.0000   1.0000
     1.0000   1.0000   1.0000   1.0000   1.0000   1.0000   1.0000   1.0000
     1.0000   1.0000   1.0000   1.0000   1.0000   1.0000   1.0000   1.0000
     1.0000   1.0000   1.0000   1.0000   1.0000   1.0000   1.0000   1.0000
     1.0000   1.0000   1.0000   1.0000   1.0000   1.0000   1.0000   1.0000
     1.0000   1.0000   1.0000   1.0000   1.0000   1.0000   1.0000   1.0002
     1.0002   1.0002   1.0002   1.0027   1.0027   1.0094   1.0098   1.0102
     1.0247   1.0282   1.0282   1.0818   0.8864   0.6175   0.6175   0.0000
     0.0000   0.0000   0.0000   0.0000   0.0000   0.0000   0.0000   0.0000
     0.0000   0.0000   0.0000   0.0000   0.0000   0.0000   0.0000   0.0000
     0.0000   0.0000   0.0000   0.0000   0.0000   0.0000   0.0000   0.0000
     0.0000   0.0000   0.0000   0.0000   0.0000   0.0000   0.0000   0.0000
     0.0000   0.0000

          k = 0.2500-0.5000 0.0000 (135938 PWs)   bands (ev):

  -101.2011-101.2011-101.1999-101.1999 -90.8158 -90.8158 -90.8104 -90.8104
   -90.5677 -90.5677 -90.5626 -90.5626 -90.5125 -90.5125 -90.5074 -90.5074
   -90.1763 -90.1763 -90.1711 -90.1711 -61.8124 -61.8124 -61.8044 -61.8044
   -61.8030 -61.8030 -61.7951 -61.7951 -61.6325 -61.6325 -61.6310 -61.6310
   -54.3641 -54.3641 -54.3304 -54.3304 -54.3219 -54.3219 -54.3216 -54.3216
   -54.3109 -54.3109 -54.2866 -54.2866 -54.0953 -54.0953 -54.0636 -54.0636
   -54.0595 -54.0595 -54.0558 -54.0558 -54.0505 -54.0505 -54.0462 -54.0462
   -54.0266 -54.0266 -54.0230 -54.0230 -54.0202 -54.0202 -54.0018 -54.0018
   -53.9988 -53.9988 -53.9869 -53.9869 -53.7240 -53.7240 -53.6907 -53.6907
   -53.6844 -53.6844 -53.6541 -53.6541 -53.6510 -53.6510 -53.6478 -53.6478
    -5.0245  -5.0245  -4.6279  -4.6279  -4.5615  -4.5615  -4.5201  -4.5201
    -4.4965  -4.4965  -4.4337  -4.4337  -4.3669  -4.3669  -4.2566  -4.2566
    -4.0117  -4.0117  -3.9256  -3.9256  -3.6802  -3.6802  -3.6488  -3.6488
    -3.5823  -3.5823  -3.5086  -3.5086  -3.4376  -3.4376  -3.3304  -3.3304
    -3.3187  -3.3187  -3.2381  -3.2381  -3.1755  -3.1755  -3.1299  -3.1299
    -2.9912  -2.9912  -2.9655  -2.9655  -2.9297  -2.9297  -2.9120  -2.9120
    -2.8799  -2.8799  -2.8206  -2.8206  -2.7281  -2.7281  -2.6870  -2.6870
    -2.6278  -2.6278  -2.5673  -2.5673  -2.4855  -2.4855  -2.4487  -2.4487
    -2.4216  -2.4216  -2.2973  -2.2973  -2.2890  -2.2890  -2.2287  -2.2287
    -2.1978  -2.1978  -2.1048  -2.1048  -1.9957  -1.9957  -1.8825  -1.8825
    -1.7711  -1.7711  -1.7564  -1.7564  -1.1565  -1.1565  -0.8290  -0.8290
    -0.5786  -0.5786  -0.3544  -0.3544  -0.0896  -0.0896  -0.0273  -0.0273
     0.0857   0.0857   0.2319   0.2319   0.2674   0.2674   0.3202   0.3202
     0.4594   0.4594   0.4981   0.4981   0.9010   0.9010   1.5538   1.5538
     2.1753   2.1753   3.5158   3.5158   3.8842   3.8842   4.9150   4.9150
     5.1899   5.1899   5.8950   5.8950   5.9458   5.9458   6.8608   6.8608
     7.0428   7.0428   7.1409   7.1409   7.4474   7.4474   7.5636   7.5636
     7.5648   7.5648   7.8212   7.8212   7.8399   7.8399   8.4164   8.4164
     8.5446   8.5446

     occupation numbers 
     1.0000   1.0000   1.0000   1.0000   1.0000   1.0000   1.0000   1.0000
     1.0000   1.0000   1.0000   1.0000   1.0000   1.0000   1.0000   1.0000
     1.0000   1.0000   1.0000   1.0000   1.0000   1.0000   1.0000   1.0000
     1.0000   1.0000   1.0000   1.0000   1.0000   1.0000   1.0000   1.0000
     1.0000   1.0000   1.0000   1.0000   1.0000   1.0000   1.0000   1.0000
     1.0000   1.0000   1.0000   1.0000   1.0000   1.0000   1.0000   1.0000
     1.0000   1.0000   1.0000   1.0000   1.0000   1.0000   1.0000   1.0000
     1.0000   1.0000   1.0000   1.0000   1.0000   1.0000   1.0000   1.0000
     1.0000   1.0000   1.0000   1.0000   1.0000   1.0000   1.0000   1.0000
     1.0000   1.0000   1.0000   1.0000   1.0000   1.0000   1.0000   1.0000
     1.0000   1.0000   1.0000   1.0000   1.0000   1.0000   1.0000   1.0000
     1.0000   1.0000   1.0000   1.0000   1.0000   1.0000   1.0000   1.0000
     1.0000   1.0000   1.0000   1.0000   1.0000   1.0000   1.0000   1.0000
     1.0000   1.0000   1.0000   1.0000   1.0000   1.0000   1.0000   1.0000
     1.0000   1.0000   1.0000   1.0000   1.0000   1.0000   1.0000   1.0000
     1.0000   1.0000   1.0000   1.0000   1.0000   1.0000   1.0000   1.0000
     1.0000   1.0000   1.0000   1.0000   1.0000   1.0000   1.0000   1.0000
     1.0000   1.0000   1.0000   1.0000   1.0000   1.0000   1.0000   1.0000
     1.0000   1.0000   1.0000   1.0000   1.0000   1.0000   1.0000   1.0000
     1.0000   1.0000   1.0000   1.0000   1.0000   1.0000   1.0000   1.0000
     1.0000   1.0000   1.0000   1.0000   1.0000   1.0000   1.0000   1.0000
     1.0000   1.0000   1.0000   1.0000   1.0000   1.0000   1.0000   1.0000
     1.0000   1.0000   1.0007   1.0007   1.0012   1.0012   1.0025   1.0025
     1.0138   1.0138   1.0203   1.0203   1.0062   1.0062   0.0118   0.0118
     0.0000   0.0000   0.0000   0.0000   0.0000   0.0000   0.0000   0.0000
     0.0000   0.0000   0.0000   0.0000   0.0000   0.0000   0.0000   0.0000
     0.0000   0.0000   0.0000   0.0000   0.0000   0.0000   0.0000   0.0000
     0.0000   0.0000   0.0000   0.0000   0.0000   0.0000   0.0000   0.0000
     0.0000   0.0000

          k =-0.5000-0.5000 0.0000 (136072 PWs)   bands (ev):

  -101.2005-101.2005-101.2005-101.2005 -90.8131 -90.8131 -90.8131 -90.8131
   -90.5651 -90.5651 -90.5651 -90.5651 -90.5100 -90.5100 -90.5100 -90.5100
   -90.1737 -90.1737 -90.1737 -90.1737 -61.8038 -61.8038 -61.8038 -61.8038
   -61.8036 -61.8036 -61.8036 -61.8036 -61.6318 -61.6318 -61.6318 -61.6318
   -54.3271 -54.3271 -54.3271 -54.3271 -54.3245 -54.3245 -54.3245 -54.3245
   -54.3161 -54.3161 -54.3161 -54.3161 -54.0613 -54.0613 -54.0613 -54.0613
   -54.0607 -54.0607 -54.0607 -54.0607 -54.0480 -54.0480 -54.0480 -54.0480
   -54.0223 -54.0223 -54.0223 -54.0223 -54.0222 -54.0222 -54.0222 -54.0222
   -54.0001 -54.0001 -54.0001 -54.0001 -53.6880 -53.6880 -53.6880 -53.6880
   -53.6871 -53.6871 -53.6871 -53.6871 -53.6509 -53.6509 -53.6509 -53.6509
    -4.5461  -4.5461  -4.5461  -4.5461  -4.3105  -4.3105  -4.3105  -4.3105
    -4.3005  -4.3005  -4.3005  -4.3005  -4.1410  -4.1410  -4.1410  -4.1410
    -3.9924  -3.9924  -3.9924  -3.9924  -3.8488  -3.8488  -3.8488  -3.8488
    -3.4296  -3.4296  -3.4296  -3.4296  -3.3797  -3.3797  -3.3797  -3.3797
    -3.1800  -3.1800  -3.1800  -3.1800  -3.0259  -3.0259  -3.0259  -3.0259
    -2.9988  -2.9988  -2.9988  -2.9988  -2.8856  -2.8856  -2.8856  -2.8856
    -2.8716  -2.8716  -2.8716  -2.8716  -2.7577  -2.7577  -2.7577  -2.7577
    -2.5874  -2.5874  -2.5874  -2.5874  -2.5487  -2.5487  -2.5487  -2.5487
    -2.5391  -2.5391  -2.5391  -2.5391  -2.5142  -2.5142  -2.5142  -2.5142
    -2.4176  -2.4176  -2.4176  -2.4176  -1.9677  -1.9677  -1.9677  -1.9677
    -1.8198  -1.8198  -1.8198  -1.8198  -1.4059  -1.4059  -1.4059  -1.4059
    -0.6080  -0.6080  -0.6080  -0.6080  -0.0548  -0.0548  -0.0548  -0.0548
     0.1411   0.1411   0.1411   0.1411   0.2500   0.2500   0.2500   0.2500
     0.3197   0.3197   0.3197   0.3197   1.0010   1.0010   1.0010   1.0010
     2.4876   2.4876   2.4876   2.4876   4.5019   4.5019   4.5019   4.5019
     6.2713   6.2713   6.2713   6.2713   7.7021   7.7021   7.7021   7.7021
     7.7655   7.7655   7.7655   7.7655   7.9409   7.9409   7.9409   7.9409
     7.9985   7.9985   7.9986   7.9986   8.4609   8.4609   8.4610   8.4610
     8.6547   8.6547

     occupation numbers 
     1.0000   1.0000   1.0000   1.0000   1.0000   1.0000   1.0000   1.0000
     1.0000   1.0000   1.0000   1.0000   1.0000   1.0000   1.0000   1.0000
     1.0000   1.0000   1.0000   1.0000   1.0000   1.0000   1.0000   1.0000
     1.0000   1.0000   1.0000   1.0000   1.0000   1.0000   1.0000   1.0000
     1.0000   1.0000   1.0000   1.0000   1.0000   1.0000   1.0000   1.0000
     1.0000   1.0000   1.0000   1.0000   1.0000   1.0000   1.0000   1.0000
     1.0000   1.0000   1.0000   1.0000   1.0000   1.0000   1.0000   1.0000
     1.0000   1.0000   1.0000   1.0000   1.0000   1.0000   1.0000   1.0000
     1.0000   1.0000   1.0000   1.0000   1.0000   1.0000   1.0000   1.0000
     1.0000   1.0000   1.0000   1.0000   1.0000   1.0000   1.0000   1.0000
     1.0000   1.0000   1.0000   1.0000   1.0000   1.0000   1.0000   1.0000
     1.0000   1.0000   1.0000   1.0000   1.0000   1.0000   1.0000   1.0000
     1.0000   1.0000   1.0000   1.0000   1.0000   1.0000   1.0000   1.0000
     1.0000   1.0000   1.0000   1.0000   1.0000   1.0000   1.0000   1.0000
     1.0000   1.0000   1.0000   1.0000   1.0000   1.0000   1.0000   1.0000
     1.0000   1.0000   1.0000   1.0000   1.0000   1.0000   1.0000   1.0000
     1.0000   1.0000   1.0000   1.0000   1.0000   1.0000   1.0000   1.0000
     1.0000   1.0000   1.0000   1.0000   1.0000   1.0000   1.0000   1.0000
     1.0000   1.0000   1.0000   1.0000   1.0000   1.0000   1.0000   1.0000
     1.0000   1.0000   1.0000   1.0000   1.0000   1.0000   1.0000   1.0000
     1.0000   1.0000   1.0000   1.0000   1.0000   1.0000   1.0000   1.0000
     1.0000   1.0000   1.0000   1.0000   1.0000   1.0000   1.0000   1.0000
     1.0001   1.0001   1.0001   1.0001   1.0009   1.0009   1.0009   1.0009
     1.0025   1.0025   1.0025   1.0025   0.8365   0.8365   0.8365   0.8365
     0.0000   0.0000   0.0000   0.0000   0.0000   0.0000   0.0000   0.0000
     0.0000   0.0000   0.0000   0.0000   0.0000   0.0000   0.0000   0.0000
     0.0000   0.0000   0.0000   0.0000   0.0000   0.0000   0.0000   0.0000
     0.0000   0.0000   0.0000   0.0000   0.0000   0.0000   0.0000   0.0000
     0.0000   0.0000

 ------ SPIN DOWN ----------


          k = 0.0000 0.0000 0.0000 (135767 PWs)   bands (ev):

  -100.6276-100.6259-100.6259-100.6242 -90.8210 -90.8132 -90.8132 -90.8059
   -90.5703 -90.5631 -90.5631 -90.5559 -90.5166 -90.5094 -90.5094 -90.5020
   -90.1805 -90.1731 -90.1731 -90.1658 -61.1537 -61.1537 -61.1514 -61.1514
   -61.1283 -61.1283 -61.1264 -61.1264 -61.1102 -61.1080 -61.1080 -61.1058
   -54.3872 -54.3872 -54.3739 -54.3739 -54.3309 -54.3206 -54.3206 -54.2969
   -54.2759 -54.2759 -54.2650 -54.2650 -54.1123 -54.1123 -54.1053 -54.1053
   -54.0716 -54.0716 -54.0676 -54.0676 -54.0536 -54.0466 -54.0466 -54.0410
   -54.0123 -54.0123 -54.0052 -54.0052 -54.0049 -53.9999 -53.9999 -53.9964
   -53.9747 -53.9747 -53.9681 -53.9681 -53.7425 -53.7425 -53.7327 -53.7327
   -53.6611 -53.6520 -53.6520 -53.6432 -53.6385 -53.6385 -53.6304 -53.6304
    -6.3029  -5.2631  -5.1908  -5.0765  -5.0580  -5.0580  -5.0173  -4.9951
    -4.9951  -4.9443  -4.8955  -4.8955  -4.5109  -4.4143  -4.3440  -4.0564
    -4.0564  -4.0087  -4.0034  -4.0034  -3.9800  -3.8601  -3.8061  -3.8061
    -3.7891  -3.6676  -3.6676  -3.6530  -3.6530  -3.6009  -3.6009  -3.5156
    -3.5156  -3.4436  -3.4436  -3.3521  -3.3521  -3.3502  -3.3502  -3.1934
    -3.1934  -3.1647  -3.1647  -2.7385  -2.7385  -2.7005  -2.6183  -2.4999
    -2.4999  -2.4649  -2.4649  -2.3943  -2.3912  -2.3912  -2.3633  -2.3633
    -2.3075  -2.3075  -2.2970  -2.2288  -2.2288  -2.1600  -2.0585  -2.0477
    -2.0477  -1.9803  -1.9803  -1.9269  -1.9269  -1.9191  -1.9191  -1.9169
    -1.8878  -1.8266  -1.8266  -1.7273  -1.7273  -1.7220  -1.5515  -1.5263
    -1.2488  -1.2429  -0.8990  -0.8184  -0.5034  -0.5034  -0.1560  -0.0614
    -0.0040  -0.0040   0.1702   0.1702   0.3857   0.4441   0.4441   0.8054
     0.8054   0.8666   0.8666   1.0181   1.0181   1.0259   1.0705   1.0705
     1.1799   1.1799   1.2292   1.2292   1.2359   1.3659   1.3659   1.5315
     1.5464   2.1814   2.1814   2.6860   3.6038   3.6038   4.2235   4.2235
     4.5723   4.5723   5.0933   5.0933   5.4288   5.5368   5.7052   6.0299
     6.0299   6.0710   6.4343   6.7381   6.7381   7.0254   7.0600   7.0600
     7.4889   7.9536   7.9618   7.9618   8.3048   8.3085   8.4465   8.6520
     8.7781   8.9727

     occupation numbers 
     1.0000   1.0000   1.0000   1.0000   1.0000   1.0000   1.0000   1.0000
     1.0000   1.0000   1.0000   1.0000   1.0000   1.0000   1.0000   1.0000
     1.0000   1.0000   1.0000   1.0000   1.0000   1.0000   1.0000   1.0000
     1.0000   1.0000   1.0000   1.0000   1.0000   1.0000   1.0000   1.0000
     1.0000   1.0000   1.0000   1.0000   1.0000   1.0000   1.0000   1.0000
     1.0000   1.0000   1.0000   1.0000   1.0000   1.0000   1.0000   1.0000
     1.0000   1.0000   1.0000   1.0000   1.0000   1.0000   1.0000   1.0000
     1.0000   1.0000   1.0000   1.0000   1.0000   1.0000   1.0000   1.0000
     1.0000   1.0000   1.0000   1.0000   1.0000   1.0000   1.0000   1.0000
     1.0000   1.0000   1.0000   1.0000   1.0000   1.0000   1.0000   1.0000
     1.0000   1.0000   1.0000   1.0000   1.0000   1.0000   1.0000   1.0000
     1.0000   1.0000   1.0000   1.0000   1.0000   1.0000   1.0000   1.0000
     1.0000   1.0000   1.0000   1.0000   1.0000   1.0000   1.0000   1.0000
     1.0000   1.0000   1.0000   1.0000   1.0000   1.0000   1.0000   1.0000
     1.0000   1.0000   1.0000   1.0000   1.0000   1.0000   1.0000   1.0000
     1.0000   1.0000   1.0000   1.0000   1.0000   1.0000   1.0000   1.0000
     1.0000   1.0000   1.0000   1.0000   1.0000   1.0000   1.0000   1.0000
     1.0000   1.0000   1.0000   1.0000   1.0000   1.0000   1.0000   1.0000
     1.0000   1.0000   1.0000   1.0000   1.0000   1.0000   1.0000   1.0000
     1.0000   1.0000   1.0000   1.0000   1.0000   1.0000   1.0000   1.0000
     1.0000   1.0000   1.0000   1.0000   1.0000   1.0000   1.0000   1.0000
     1.0000   1.0000   1.0002   1.0002   1.0059   1.0117   1.0117   1.0765
     1.0765   1.0415   1.0415   0.7989   0.7989   0.7811   0.6738   0.6738
     0.4048   0.4048   0.2988   0.2988   0.2857   0.1001   0.1001   0.0158
     0.0130   0.0000   0.0000   0.0000   0.0000   0.0000   0.0000   0.0000
     0.0000   0.0000   0.0000   0.0000   0.0000   0.0000   0.0000   0.0000
     0.0000   0.0000   0.0000   0.0000   0.0000   0.0000   0.0000   0.0000
     0.0000   0.0000   0.0000   0.0000   0.0000   0.0000   0.0000   0.0000
     0.0000   0.0000

          k = 0.0000 0.2500 0.0000 (135906 PWs)   bands (ev):

  -100.6273-100.6261-100.6256-100.6245 -90.8199 -90.8144 -90.8121 -90.8070
   -90.5693 -90.5642 -90.5621 -90.5569 -90.5155 -90.5104 -90.5083 -90.5031
   -90.1794 -90.1742 -90.1721 -90.1669 -61.1534 -61.1518 -61.1500 -61.1478
   -61.1320 -61.1300 -61.1280 -61.1267 -61.1098 -61.1083 -61.1077 -61.1061
   -54.3851 -54.3757 -54.3714 -54.3584 -54.3288 -54.3213 -54.3173 -54.3005
   -54.2928 -54.2815 -54.2744 -54.2666 -54.1106 -54.1058 -54.0979 -54.0908
   -54.0711 -54.0683 -54.0595 -54.0535 -54.0520 -54.0458 -54.0457 -54.0416
   -54.0275 -54.0200 -54.0112 -54.0062 -54.0040 -54.0006 -53.9994 -53.9969
   -53.9892 -53.9828 -53.9737 -53.9691 -53.7411 -53.7342 -53.7274 -53.7178
   -53.6598 -53.6538 -53.6534 -53.6507 -53.6454 -53.6445 -53.6373 -53.6315
    -5.9917  -5.0788  -5.0550  -5.0235  -4.9076  -4.9000  -4.8787  -4.8378
    -4.8368  -4.8089  -4.8024  -4.7733  -4.3734  -4.3126  -4.2347  -4.1232
    -4.1202  -3.9869  -3.9364  -3.8667  -3.8599  -3.8537  -3.7808  -3.7643
    -3.7294  -3.7201  -3.7096  -3.6349  -3.5735  -3.5458  -3.5239  -3.4353
    -3.4259  -3.4197  -3.3463  -3.3395  -3.3285  -3.3177  -3.3037  -3.3029
    -3.2117  -3.0846  -3.0242  -2.9544  -2.8531  -2.7776  -2.7237  -2.7062
    -2.6875  -2.6252  -2.5845  -2.5411  -2.4681  -2.4278  -2.3800  -2.3511
    -2.3495  -2.3055  -2.2653  -2.2612  -2.2609  -2.2534  -2.2296  -2.2221
    -2.1894  -2.1361  -2.1149  -2.1096  -2.0277  -2.0134  -2.0055  -1.9477
    -1.8614  -1.8287  -1.8037  -1.8005  -1.7718  -1.7685  -1.6832  -1.6577
    -1.6541  -1.4812  -1.4620  -1.3217  -1.1868  -0.5421  -0.4621  -0.1374
    -0.0695  -0.0386   0.0800   0.1120   0.3864   0.4121   0.4581   0.4618
     0.4762   0.6640   0.7692   0.8188   0.9158   0.9408   0.9656   1.0317
     1.0676   1.1764   1.2321   1.2620   1.6077   1.8901   2.0472   2.1221
     2.2874   2.4592   2.9959   3.0238   3.3626   3.7203   4.2025   4.2554
     4.4241   4.7578   4.8526   5.0017   5.7180   5.7657   5.8385   5.9373
     5.9934   6.1698   6.3700   6.6772   6.7150   6.7171   6.9808   7.3230
     7.3348   7.7041   7.7580   7.9786   8.0868   8.1389   8.2923   8.4077
     8.5972   8.8405

     occupation numbers 
     1.0000   1.0000   1.0000   1.0000   1.0000   1.0000   1.0000   1.0000
     1.0000   1.0000   1.0000   1.0000   1.0000   1.0000   1.0000   1.0000
     1.0000   1.0000   1.0000   1.0000   1.0000   1.0000   1.0000   1.0000
     1.0000   1.0000   1.0000   1.0000   1.0000   1.0000   1.0000   1.0000
     1.0000   1.0000   1.0000   1.0000   1.0000   1.0000   1.0000   1.0000
     1.0000   1.0000   1.0000   1.0000   1.0000   1.0000   1.0000   1.0000
     1.0000   1.0000   1.0000   1.0000   1.0000   1.0000   1.0000   1.0000
     1.0000   1.0000   1.0000   1.0000   1.0000   1.0000   1.0000   1.0000
     1.0000   1.0000   1.0000   1.0000   1.0000   1.0000   1.0000   1.0000
     1.0000   1.0000   1.0000   1.0000   1.0000   1.0000   1.0000   1.0000
     1.0000   1.0000   1.0000   1.0000   1.0000   1.0000   1.0000   1.0000
     1.0000   1.0000   1.0000   1.0000   1.0000   1.0000   1.0000   1.0000
     1.0000   1.0000   1.0000   1.0000   1.0000   1.0000   1.0000   1.0000
     1.0000   1.0000   1.0000   1.0000   1.0000   1.0000   1.0000   1.0000
     1.0000   1.0000   1.0000   1.0000   1.0000   1.0000   1.0000   1.0000
     1.0000   1.0000   1.0000   1.0000   1.0000   1.0000   1.0000   1.0000
     1.0000   1.0000   1.0000   1.0000   1.0000   1.0000   1.0000   1.0000
     1.0000   1.0000   1.0000   1.0000   1.0000   1.0000   1.0000   1.0000
     1.0000   1.0000   1.0000   1.0000   1.0000   1.0000   1.0000   1.0000
     1.0000   1.0000   1.0000   1.0000   1.0000   1.0000   1.0000   1.0000
     1.0000   1.0000   1.0000   1.0000   1.0000   1.0000   1.0000   1.0000
     1.0000   1.0000   1.0000   1.0001   1.0060   1.0082   1.0136   1.0142
     1.0164   1.0662   1.0830   1.0716   0.9872   0.9500   0.9071   0.7677
     0.6811   0.4127   0.2932   0.2379   0.0056   0.0000   0.0000   0.0000
     0.0000   0.0000   0.0000   0.0000   0.0000   0.0000   0.0000   0.0000
     0.0000   0.0000   0.0000   0.0000   0.0000   0.0000   0.0000   0.0000
     0.0000   0.0000   0.0000   0.0000   0.0000   0.0000   0.0000   0.0000
     0.0000   0.0000   0.0000   0.0000   0.0000   0.0000   0.0000   0.0000
     0.0000   0.0000

          k = 0.0000-0.5000 0.0000 (135922 PWs)   bands (ev):

  -100.6267-100.6267-100.6251-100.6251 -90.8171 -90.8171 -90.8096 -90.8096
   -90.5667 -90.5667 -90.5595 -90.5595 -90.5130 -90.5130 -90.5057 -90.5057
   -90.1768 -90.1768 -90.1695 -90.1695 -61.1526 -61.1526 -61.1410 -61.1410
   -61.1389 -61.1389 -61.1273 -61.1273 -61.1091 -61.1091 -61.1069 -61.1069
   -54.3802 -54.3802 -54.3326 -54.3326 -54.3244 -54.3244 -54.3204 -54.3204
   -54.3090 -54.3090 -54.2705 -54.2705 -54.1076 -54.1076 -54.0698 -54.0698
   -54.0630 -54.0630 -54.0557 -54.0557 -54.0496 -54.0496 -54.0437 -54.0437
   -54.0239 -54.0239 -54.0184 -54.0184 -54.0087 -54.0087 -54.0021 -54.0021
   -53.9981 -53.9981 -53.9714 -53.9714 -53.7376 -53.7376 -53.6906 -53.6906
   -53.6817 -53.6817 -53.6566 -53.6566 -53.6476 -53.6476 -53.6344 -53.6344
    -5.3094  -5.3094  -4.8197  -4.8197  -4.7694  -4.7694  -4.7041  -4.7041
    -4.5620  -4.5620  -4.5240  -4.5240  -4.4737  -4.4737  -4.2848  -4.2848
    -4.0962  -4.0962  -4.0706  -4.0706  -3.7825  -3.7825  -3.7466  -3.7466
    -3.6055  -3.6055  -3.4626  -3.4626  -3.3969  -3.3969  -3.2675  -3.2675
    -3.2422  -3.2422  -3.1632  -3.1632  -3.1611  -3.1611  -3.0865  -3.0865
    -3.0624  -3.0624  -2.9360  -2.9360  -2.9008  -2.9008  -2.8553  -2.8553
    -2.8463  -2.8463  -2.8373  -2.8373  -2.7476  -2.7476  -2.6799  -2.6799
    -2.5533  -2.5533  -2.5111  -2.5111  -2.3797  -2.3797  -2.3598  -2.3598
    -2.3530  -2.3530  -2.2744  -2.2744  -2.1464  -2.1464  -2.0078  -2.0078
    -1.9601  -1.9601  -1.9576  -1.9576  -1.9300  -1.9300  -1.9075  -1.9075
    -1.6811  -1.6811  -1.6500  -1.6500  -1.4391  -1.4391  -0.0121  -0.0121
     0.1228   0.1228   0.2071   0.2071   0.2931   0.2931   0.5224   0.5224
     0.5451   0.5451   0.5993   0.5993   0.7833   0.7833   1.0397   1.0397
     1.0561   1.0561   1.3518   1.3518   2.0622   2.0622   2.2494   2.2494
     2.9627   2.9627   3.0755   3.0755   3.1756   3.1756   3.8821   3.8821
     4.8116   4.8116   4.9724   4.9724   5.7540   5.7540   6.5780   6.5780
     6.6831   6.6831   6.7422   6.7422   6.8557   6.8557   7.1361   7.1361
     7.2661   7.2661   7.5616   7.5616   7.7663   7.7663   8.1310   8.1310
     8.2498   8.2498

     occupation numbers 
     1.0000   1.0000   1.0000   1.0000   1.0000   1.0000   1.0000   1.0000
     1.0000   1.0000   1.0000   1.0000   1.0000   1.0000   1.0000   1.0000
     1.0000   1.0000   1.0000   1.0000   1.0000   1.0000   1.0000   1.0000
     1.0000   1.0000   1.0000   1.0000   1.0000   1.0000   1.0000   1.0000
     1.0000   1.0000   1.0000   1.0000   1.0000   1.0000   1.0000   1.0000
     1.0000   1.0000   1.0000   1.0000   1.0000   1.0000   1.0000   1.0000
     1.0000   1.0000   1.0000   1.0000   1.0000   1.0000   1.0000   1.0000
     1.0000   1.0000   1.0000   1.0000   1.0000   1.0000   1.0000   1.0000
     1.0000   1.0000   1.0000   1.0000   1.0000   1.0000   1.0000   1.0000
     1.0000   1.0000   1.0000   1.0000   1.0000   1.0000   1.0000   1.0000
     1.0000   1.0000   1.0000   1.0000   1.0000   1.0000   1.0000   1.0000
     1.0000   1.0000   1.0000   1.0000   1.0000   1.0000   1.0000   1.0000
     1.0000   1.0000   1.0000   1.0000   1.0000   1.0000   1.0000   1.0000
     1.0000   1.0000   1.0000   1.0000   1.0000   1.0000   1.0000   1.0000
     1.0000   1.0000   1.0000   1.0000   1.0000   1.0000   1.0000   1.0000
     1.0000   1.0000   1.0000   1.0000   1.0000   1.0000   1.0000   1.0000
     1.0000   1.0000   1.0000   1.0000   1.0000   1.0000   1.0000   1.0000
     1.0000   1.0000   1.0000   1.0000   1.0000   1.0000   1.0000   1.0000
     1.0000   1.0000   1.0000   1.0000   1.0000   1.0000   1.0000   1.0000
     1.0000   1.0000   1.0000   1.0000   1.0000   1.0000   1.0000   1.0000
     1.0000   1.0000   1.0000   1.0000   1.0000   1.0000   1.0000   1.0000
     1.0001   1.0001   1.0004   1.0004   1.0017   1.0017   1.0254   1.0254
     1.0308   1.0308   1.0461   1.0461   1.0815   1.0815   0.7489   0.7489
     0.7095   0.7095   0.1141   0.1141   0.0000   0.0000   0.0000   0.0000
     0.0000   0.0000   0.0000   0.0000   0.0000   0.0000   0.0000   0.0000
     0.0000   0.0000   0.0000   0.0000   0.0000   0.0000   0.0000   0.0000
     0.0000   0.0000   0.0000   0.0000   0.0000   0.0000   0.0000   0.0000
     0.0000   0.0000   0.0000   0.0000   0.0000   0.0000   0.0000   0.0000
     0.0000   0.0000

          k = 0.2500 0.2500 0.0000 (135950 PWs)   bands (ev):

  -100.6271-100.6259-100.6259-100.6247 -90.8188 -90.8133 -90.8133 -90.8080
   -90.5682 -90.5631 -90.5631 -90.5580 -90.5144 -90.5094 -90.5094 -90.5042
   -90.1784 -90.1732 -90.1732 -90.1680 -61.1497 -61.1497 -61.1481 -61.1480
   -61.1318 -61.1317 -61.1303 -61.1303 -61.1095 -61.1080 -61.1080 -61.1064
   -54.3693 -54.3693 -54.3605 -54.3596 -54.3266 -54.3183 -54.3183 -54.3035
   -54.2920 -54.2903 -54.2831 -54.2831 -54.0964 -54.0964 -54.0917 -54.0913
   -54.0583 -54.0583 -54.0541 -54.0540 -54.0507 -54.0455 -54.0455 -54.0424
   -54.0266 -54.0259 -54.0209 -54.0209 -54.0033 -54.0001 -54.0001 -53.9974
   -53.9884 -53.9881 -53.9838 -53.9838 -53.7260 -53.7260 -53.7195 -53.7190
   -53.6585 -53.6528 -53.6523 -53.6521 -53.6521 -53.6466 -53.6466 -53.6458
    -5.6828  -4.8772  -4.8171  -4.8148  -4.8148  -4.7786  -4.7656  -4.7656
    -4.7164  -4.7045  -4.6708  -4.6023  -4.1647  -4.1427  -4.1427  -4.0791
    -4.0405  -4.0405  -4.0385  -3.9114  -3.9114  -3.7434  -3.6843  -3.6429
    -3.6312  -3.6255  -3.5695  -3.5649  -3.5649  -3.5068  -3.5068  -3.4906
    -3.4906  -3.4718  -3.3795  -3.3795  -3.3618  -3.2011  -3.2011  -3.1262
    -3.1262  -3.1214  -3.0212  -2.9933  -2.9933  -2.9841  -2.7944  -2.7730
    -2.7206  -2.7206  -2.6663  -2.5932  -2.5932  -2.5560  -2.4773  -2.4773
    -2.4231  -2.4083  -2.3764  -2.3764  -2.3037  -2.2861  -2.2711  -2.2711
    -2.2310  -2.2263  -2.2083  -2.1870  -2.1802  -2.1414  -2.1414  -2.0580
    -2.0580  -2.0262  -1.9746  -1.8475  -1.8475  -1.8211  -1.8129  -1.7627
    -1.6406  -1.6165  -1.5330  -1.2490  -1.2490  -0.7719  -0.7719  -0.2427
    -0.2427  -0.1731  -0.1629   0.0348   0.0515   0.2505   0.2505   0.5472
     0.6364   0.6446   0.6446   0.7865   0.7865   0.8434   0.9666   1.0291
     1.0563   1.0563   1.1379   1.1509   1.1740   1.3485   1.3485   2.2378
     2.4879   2.7818   2.7818   3.7450   3.9057   4.1112   4.1112   5.0165
     5.0501   5.0501   5.2634   5.2634   5.4476   6.0059   6.1406   6.2812
     6.2825   6.6695   6.9026   6.9026   6.9833   6.9833   6.9987   7.3477
     7.6210   8.0250   8.1417   8.2585   8.2585   8.3593   8.3594   8.4637
     8.5795   8.5795

     occupation numbers 
     1.0000   1.0000   1.0000   1.0000   1.0000   1.0000   1.0000   1.0000
     1.0000   1.0000   1.0000   1.0000   1.0000   1.0000   1.0000   1.0000
     1.0000   1.0000   1.0000   1.0000   1.0000   1.0000   1.0000   1.0000
     1.0000   1.0000   1.0000   1.0000   1.0000   1.0000   1.0000   1.0000
     1.0000   1.0000   1.0000   1.0000   1.0000   1.0000   1.0000   1.0000
     1.0000   1.0000   1.0000   1.0000   1.0000   1.0000   1.0000   1.0000
     1.0000   1.0000   1.0000   1.0000   1.0000   1.0000   1.0000   1.0000
     1.0000   1.0000   1.0000   1.0000   1.0000   1.0000   1.0000   1.0000
     1.0000   1.0000   1.0000   1.0000   1.0000   1.0000   1.0000   1.0000
     1.0000   1.0000   1.0000   1.0000   1.0000   1.0000   1.0000   1.0000
     1.0000   1.0000   1.0000   1.0000   1.0000   1.0000   1.0000   1.0000
     1.0000   1.0000   1.0000   1.0000   1.0000   1.0000   1.0000   1.0000
     1.0000   1.0000   1.0000   1.0000   1.0000   1.0000   1.0000   1.0000
     1.0000   1.0000   1.0000   1.0000   1.0000   1.0000   1.0000   1.0000
     1.0000   1.0000   1.0000   1.0000   1.0000   1.0000   1.0000   1.0000
     1.0000   1.0000   1.0000   1.0000   1.0000   1.0000   1.0000   1.0000
     1.0000   1.0000   1.0000   1.0000   1.0000   1.0000   1.0000   1.0000
     1.0000   1.0000   1.0000   1.0000   1.0000   1.0000   1.0000   1.0000
     1.0000   1.0000   1.0000   1.0000   1.0000   1.0000   1.0000   1.0000
     1.0000   1.0000   1.0000   1.0000   1.0000   1.0000   1.0000   1.0000
     1.0000   1.0000   1.0000   1.0000   1.0000   1.0000   1.0000   1.0000
     1.0000   1.0000   1.0000   1.0000   1.0000   1.0009   1.0009   1.0314
     1.0577   1.0603   1.0603   1.0810   1.0810   1.0588   0.9054   0.7738
     0.7088   0.7088   0.5051   0.4734   0.4182   0.1175   0.1175   0.0000
     0.0000   0.0000   0.0000   0.0000   0.0000   0.0000   0.0000   0.0000
     0.0000   0.0000   0.0000   0.0000   0.0000   0.0000   0.0000   0.0000
     0.0000   0.0000   0.0000   0.0000   0.0000   0.0000   0.0000   0.0000
     0.0000   0.0000   0.0000   0.0000   0.0000   0.0000   0.0000   0.0000
     0.0000   0.0000

          k = 0.2500-0.5000 0.0000 (135938 PWs)   bands (ev):

  -100.6265-100.6265-100.6253-100.6253 -90.8160 -90.8160 -90.8107 -90.8107
   -90.5657 -90.5657 -90.5606 -90.5606 -90.5119 -90.5119 -90.5068 -90.5068
   -90.1758 -90.1758 -90.1706 -90.1706 -61.1489 -61.1489 -61.1407 -61.1407
   -61.1392 -61.1392 -61.1310 -61.1310 -61.1088 -61.1088 -61.1072 -61.1072
   -54.3645 -54.3645 -54.3307 -54.3307 -54.3220 -54.3220 -54.3219 -54.3219
   -54.3108 -54.3108 -54.2870 -54.2870 -54.0936 -54.0936 -54.0618 -54.0618
   -54.0580 -54.0580 -54.0546 -54.0546 -54.0483 -54.0483 -54.0440 -54.0440
   -54.0251 -54.0251 -54.0217 -54.0217 -54.0193 -54.0193 -54.0016 -54.0016
   -53.9986 -53.9986 -53.9860 -53.9860 -53.7226 -53.7226 -53.6893 -53.6893
   -53.6830 -53.6830 -53.6553 -53.6553 -53.6496 -53.6496 -53.6489 -53.6489
    -5.0251  -5.0251  -4.6269  -4.6269  -4.5652  -4.5652  -4.5192  -4.5192
    -4.4942  -4.4942  -4.4329  -4.4329  -4.3654  -4.3654  -4.2571  -4.2571
    -4.0104  -4.0104  -3.9246  -3.9246  -3.6783  -3.6783  -3.6450  -3.6450
    -3.5814  -3.5814  -3.5080  -3.5080  -3.4352  -3.4352  -3.3306  -3.3306
    -3.3156  -3.3156  -3.2357  -3.2357  -3.1744  -3.1744  -3.1213  -3.1213
    -2.9832  -2.9832  -2.9639  -2.9639  -2.9230  -2.9230  -2.9081  -2.9081
    -2.8781  -2.8781  -2.8169  -2.8169  -2.7084  -2.7084  -2.6853  -2.6853
    -2.6261  -2.6261  -2.5631  -2.5631  -2.4801  -2.4801  -2.4430  -2.4430
    -2.4180  -2.4180  -2.2941  -2.2941  -2.2853  -2.2853  -2.2171  -2.2171
    -2.1865  -2.1865  -2.1015  -2.1015  -1.9902  -1.9902  -1.8651  -1.8651
    -1.7686  -1.7686  -1.7493  -1.7493  -1.0812  -1.0812  -0.7493  -0.7493
    -0.3129  -0.3129   0.1587   0.1587   0.2675   0.2675   0.3598   0.3598
     0.6157   0.6157   0.6955   0.6955   0.7229   0.7229   0.8483   0.8483
     0.9290   0.9290   1.0105   1.0105   1.2450   1.2450   1.7034   1.7034
     2.3058   2.3058   3.5522   3.5522   3.9241   3.9241   4.9603   4.9603
     5.2111   5.2111   5.9148   5.9148   5.9855   5.9855   6.8624   6.8624
     7.0437   7.0437   7.1423   7.1423   7.4816   7.4816   7.5661   7.5661
     7.5846   7.5846   7.8364   7.8364   7.8423   7.8423   8.4396   8.4396
     8.5556   8.5556

     occupation numbers 
     1.0000   1.0000   1.0000   1.0000   1.0000   1.0000   1.0000   1.0000
     1.0000   1.0000   1.0000   1.0000   1.0000   1.0000   1.0000   1.0000
     1.0000   1.0000   1.0000   1.0000   1.0000   1.0000   1.0000   1.0000
     1.0000   1.0000   1.0000   1.0000   1.0000   1.0000   1.0000   1.0000
     1.0000   1.0000   1.0000   1.0000   1.0000   1.0000   1.0000   1.0000
     1.0000   1.0000   1.0000   1.0000   1.0000   1.0000   1.0000   1.0000
     1.0000   1.0000   1.0000   1.0000   1.0000   1.0000   1.0000   1.0000
     1.0000   1.0000   1.0000   1.0000   1.0000   1.0000   1.0000   1.0000
     1.0000   1.0000   1.0000   1.0000   1.0000   1.0000   1.0000   1.0000
     1.0000   1.0000   1.0000   1.0000   1.0000   1.0000   1.0000   1.0000
     1.0000   1.0000   1.0000   1.0000   1.0000   1.0000   1.0000   1.0000
     1.0000   1.0000   1.0000   1.0000   1.0000   1.0000   1.0000   1.0000
     1.0000   1.0000   1.0000   1.0000   1.0000   1.0000   1.0000   1.0000
     1.0000   1.0000   1.0000   1.0000   1.0000   1.0000   1.0000   1.0000
     1.0000   1.0000   1.0000   1.0000   1.0000   1.0000   1.0000   1.0000
     1.0000   1.0000   1.0000   1.0000   1.0000   1.0000   1.0000   1.0000
     1.0000   1.0000   1.0000   1.0000   1.0000   1.0000   1.0000   1.0000
     1.0000   1.0000   1.0000   1.0000   1.0000   1.0000   1.0000   1.0000
     1.0000   1.0000   1.0000   1.0000   1.0000   1.0000   1.0000   1.0000
     1.0000   1.0000   1.0000   1.0000   1.0000   1.0000   1.0000   1.0000
     1.0000   1.0000   1.0000   1.0000   1.0000   1.0000   1.0000   1.0000
     1.0000   1.0000   1.0002   1.0002   1.0012   1.0012   1.0043   1.0043
     1.0512   1.0512   1.0747   1.0747   1.0803   1.0803   1.0555   1.0555
     0.9684   0.9684   0.8159   0.8159   0.2684   0.2684   0.0013   0.0013
     0.0000   0.0000   0.0000   0.0000   0.0000   0.0000   0.0000   0.0000
     0.0000   0.0000   0.0000   0.0000   0.0000   0.0000   0.0000   0.0000
     0.0000   0.0000   0.0000   0.0000   0.0000   0.0000   0.0000   0.0000
     0.0000   0.0000   0.0000   0.0000   0.0000   0.0000   0.0000   0.0000
     0.0000   0.0000

          k =-0.5000-0.5000 0.0000 (136072 PWs)   bands (ev):

  -100.6259-100.6259-100.6259-100.6259 -90.8133 -90.8133 -90.8133 -90.8133
   -90.5631 -90.5631 -90.5631 -90.5631 -90.5093 -90.5093 -90.5093 -90.5093
   -90.1732 -90.1732 -90.1732 -90.1732 -61.1401 -61.1401 -61.1401 -61.1401
   -61.1399 -61.1399 -61.1399 -61.1399 -61.1080 -61.1080 -61.1080 -61.1080
   -54.3275 -54.3275 -54.3275 -54.3275 -54.3249 -54.3249 -54.3249 -54.3249
   -54.3160 -54.3160 -54.3160 -54.3160 -54.0595 -54.0595 -54.0595 -54.0595
   -54.0589 -54.0589 -54.0589 -54.0589 -54.0457 -54.0457 -54.0457 -54.0457
   -54.0213 -54.0213 -54.0213 -54.0213 -54.0213 -54.0213 -54.0213 -54.0213
   -53.9999 -53.9999 -53.9999 -53.9999 -53.6867 -53.6867 -53.6867 -53.6867
   -53.6857 -53.6857 -53.6857 -53.6857 -53.6521 -53.6521 -53.6521 -53.6521
    -4.5457  -4.5457  -4.5457  -4.5457  -4.3104  -4.3104  -4.3104  -4.3104
    -4.2991  -4.2991  -4.2991  -4.2991  -4.1400  -4.1400  -4.1400  -4.1400
    -3.9930  -3.9930  -3.9930  -3.9930  -3.8492  -3.8492  -3.8492  -3.8492
    -3.4268  -3.4268  -3.4268  -3.4268  -3.3799  -3.3799  -3.3799  -3.3799
    -3.1741  -3.1741  -3.1741  -3.1741  -3.0239  -3.0239  -3.0239  -3.0239
    -2.9977  -2.9977  -2.9977  -2.9977  -2.8746  -2.8746  -2.8746  -2.8746
    -2.8649  -2.8649  -2.8649  -2.8649  -2.7524  -2.7524  -2.7524  -2.7524
    -2.5784  -2.5784  -2.5784  -2.5784  -2.5423  -2.5423  -2.5423  -2.5423
    -2.5382  -2.5382  -2.5382  -2.5382  -2.5119  -2.5119  -2.5119  -2.5119
    -2.4185  -2.4185  -2.4185  -2.4185  -1.9604  -1.9604  -1.9604  -1.9604
    -1.8149  -1.8149  -1.8149  -1.8149  -1.3304  -1.3304  -1.3304  -1.3304
    -0.4385  -0.4385  -0.4385  -0.4385   0.5179   0.5179   0.5179   0.5179
     0.5524   0.5524   0.5524   0.5524   0.8136   0.8136   0.8136   0.8136
     0.8349   0.8349   0.8349   0.8349   1.2894   1.2894   1.2894   1.2894
     2.5679   2.5679   2.5679   2.5679   4.5304   4.5304   4.5304   4.5304
     6.2879   6.2879   6.2879   6.2879   7.7044   7.7044   7.7044   7.7044
     7.8012   7.8012   7.8012   7.8012   7.9417   7.9417   7.9417   7.9417
     7.9998   7.9998   7.9998   7.9998   8.4622   8.4622   8.4622   8.4622
     8.6583   8.6583

     occupation numbers 
     1.0000   1.0000   1.0000   1.0000   1.0000   1.0000   1.0000   1.0000
     1.0000   1.0000   1.0000   1.0000   1.0000   1.0000   1.0000   1.0000
     1.0000   1.0000   1.0000   1.0000   1.0000   1.0000   1.0000   1.0000
     1.0000   1.0000   1.0000   1.0000   1.0000   1.0000   1.0000   1.0000
     1.0000   1.0000   1.0000   1.0000   1.0000   1.0000   1.0000   1.0000
     1.0000   1.0000   1.0000   1.0000   1.0000   1.0000   1.0000   1.0000
     1.0000   1.0000   1.0000   1.0000   1.0000   1.0000   1.0000   1.0000
     1.0000   1.0000   1.0000   1.0000   1.0000   1.0000   1.0000   1.0000
     1.0000   1.0000   1.0000   1.0000   1.0000   1.0000   1.0000   1.0000
     1.0000   1.0000   1.0000   1.0000   1.0000   1.0000   1.0000   1.0000
     1.0000   1.0000   1.0000   1.0000   1.0000   1.0000   1.0000   1.0000
     1.0000   1.0000   1.0000   1.0000   1.0000   1.0000   1.0000   1.0000
     1.0000   1.0000   1.0000   1.0000   1.0000   1.0000   1.0000   1.0000
     1.0000   1.0000   1.0000   1.0000   1.0000   1.0000   1.0000   1.0000
     1.0000   1.0000   1.0000   1.0000   1.0000   1.0000   1.0000   1.0000
     1.0000   1.0000   1.0000   1.0000   1.0000   1.0000   1.0000   1.0000
     1.0000   1.0000   1.0000   1.0000   1.0000   1.0000   1.0000   1.0000
     1.0000   1.0000   1.0000   1.0000   1.0000   1.0000   1.0000   1.0000
     1.0000   1.0000   1.0000   1.0000   1.0000   1.0000   1.0000   1.0000
     1.0000   1.0000   1.0000   1.0000   1.0000   1.0000   1.0000   1.0000
     1.0000   1.0000   1.0000   1.0000   1.0000   1.0000   1.0000   1.0000
     1.0000   1.0000   1.0000   1.0000   1.0244   1.0244   1.0244   1.0244
     1.0327   1.0327   1.0327   1.0327   1.0737   1.0737   1.0737   1.0737
     1.0638   1.0638   1.0638   1.0638   0.1934   0.1934   0.1934   0.1934
     0.0000   0.0000   0.0000   0.0000   0.0000   0.0000   0.0000   0.0000
     0.0000   0.0000   0.0000   0.0000   0.0000   0.0000   0.0000   0.0000
     0.0000   0.0000   0.0000   0.0000   0.0000   0.0000   0.0000   0.0000
     0.0000   0.0000   0.0000   0.0000   0.0000   0.0000   0.0000   0.0000
     0.0000   0.0000

     the Fermi energy is     1.1817 ev

!    total energy              =   -6297.32132947 Ry
     estimated scf accuracy    <          1.2E-09 Ry
     smearing contrib. (-TS)   =       0.00977686 Ry
     internal energy E=F+TS    =   -6297.33110632 Ry

     The total energy is F=E-TS. E is the sum of the following terms:
     one-electron contribution = -103036.35530848 Ry
     hartree contribution      =   51515.32227714 Ry
     xc contribution           =    -905.01665458 Ry
     ewald contribution        =   46128.71857959 Ry

     total magnetization       =     2.15 Bohr mag/cell
     absolute magnetization    =     2.55 Bohr mag/cell

     convergence has been achieved in   9 iterations

     Forces acting on atoms (cartesian axes, Ry/au):

     atom    1 type  1   force =     0.00000000    0.00000000   -0.00577264
     atom    2 type  1   force =     0.00000000    0.00000000   -0.00577263
     atom    3 type  1   force =     0.00000000    0.00000000   -0.00577263
     atom    4 type  1   force =     0.00000000    0.00000000   -0.00577262
     atom    5 type  1   force =     0.00000002    0.00000002    0.00475316
     atom    6 type  1   force =    -0.00000002    0.00000002    0.00475316
     atom    7 type  1   force =     0.00000002   -0.00000002    0.00475316
     atom    8 type  1   force =    -0.00000002   -0.00000002    0.00475316
     atom    9 type  1   force =     0.00000000    0.00000000    0.03713081
     atom   10 type  1   force =     0.00000000    0.00000000    0.03713079
     atom   11 type  1   force =     0.00000000    0.00000000    0.03713079
     atom   12 type  1   force =     0.00000000    0.00000000    0.03713078
     atom   13 type  2   force =    -0.00000000   -0.00000000    0.00203066
     atom   14 type  2   force =     0.00000000   -0.00000000    0.00203066
     atom   15 type  2   force =    -0.00000000    0.00000000    0.00203066
     atom   16 type  2   force =     0.00000000    0.00000000    0.00203066
     atom   17 type  1   force =     0.00000000    0.00000000   -0.03814199
     atom   18 type  1   force =     0.00000000    0.00000000   -0.03814198
     atom   19 type  1   force =     0.00000000    0.00000000   -0.03814198
     atom   20 type  1   force =     0.00000000    0.00000000   -0.03814198
     The non-local contrib.  to forces
     atom    1 type  1   force =     0.00000000    0.00000000   -0.23148297
     atom    2 type  1   force =     0.00000000    0.00000000   -0.23148295
     atom    3 type  1   force =     0.00000000    0.00000000   -0.23148295
     atom    4 type  1   force =     0.00000000    0.00000000   -0.23148294
     atom    5 type  1   force =     0.00000003    0.00000003   -0.01434541
     atom    6 type  1   force =    -0.00000003    0.00000003   -0.01434541
     atom    7 type  1   force =     0.00000003   -0.00000003   -0.01434541
     atom    8 type  1   force =    -0.00000003   -0.00000003   -0.01434541
     atom    9 type  1   force =     0.00000000    0.00000000   -0.09362207
     atom   10 type  1   force =     0.00000000    0.00000000   -0.09362212
     atom   11 type  1   force =     0.00000000    0.00000000   -0.09362212
     atom   12 type  1   force =     0.00000000    0.00000000   -0.09362215
     atom   13 type  2   force =    -0.00000001   -0.00000001   -0.01813349
     atom   14 type  2   force =     0.00000001   -0.00000001   -0.01813349
     atom   15 type  2   force =    -0.00000001    0.00000001   -0.01813349
     atom   16 type  2   force =     0.00000001    0.00000001   -0.01813349
     atom   17 type  1   force =     0.00000000    0.00000000    0.32119149
     atom   18 type  1   force =     0.00000000    0.00000000    0.32119149
     atom   19 type  1   force =     0.00000000    0.00000000    0.32119149
     atom   20 type  1   force =     0.00000000    0.00000000    0.32119149
     The ionic contribution  to forces
     atom    1 type  1   force =     0.00000000    0.00000000 -450.38670876
     atom    2 type  1   force =    -0.00000000    0.00000000 -450.38670530
     atom    3 type  1   force =     0.00000000   -0.00000000 -450.38670530
     atom    4 type  1   force =    -0.00000000   -0.00000000 -450.38670193
     atom    5 type  1   force =     0.00000605    0.00000605 -224.23883483
     atom    6 type  1   force =    -0.00000605    0.00000605 -224.23883483
     atom    7 type  1   force =     0.00000605   -0.00000605 -224.23883483
     atom    8 type  1   force =    -0.00000605   -0.00000605 -224.23883483
     atom    9 type  1   force =     0.00000000    0.00000000    7.23126224
     atom   10 type  1   force =    -0.00000000    0.00000000    7.23126578
     atom   11 type  1   force =     0.00000000   -0.00000000    7.23126578
     atom   12 type  1   force =    -0.00000000   -0.00000000    7.23126559
     atom   13 type  2   force =    -0.00000192   -0.00000192  218.65175374
     atom   14 type  2   force =     0.00000192   -0.00000192  218.65175374
     atom   15 type  2   force =    -0.00000192    0.00000192  218.65175374
     atom   16 type  2   force =     0.00000192    0.00000192  218.65175374
     atom   17 type  1   force =     0.00000000    0.00000000  448.74252782
     atom   18 type  1   force =    -0.00000000    0.00000000  448.74251905
     atom   19 type  1   force =     0.00000000   -0.00000000  448.74251905
     atom   20 type  1   force =    -0.00000000   -0.00000000  448.74252035
     The local contribution  to forces
     atom    1 type  1   force =     0.00000000    0.00000000  450.59684247
     atom    2 type  1   force =    -0.00000001    0.00000000  450.59683902
[...]
     1.0000   1.0000   1.0000   1.0000   1.0222   1.0222   1.0222   1.0222
     1.0251   1.0251   1.0251   1.0251   1.0820   1.0820   1.0820   1.0820
     1.0666   1.0666   1.0666   1.0666   0.0419   0.0419   0.0419   0.0419
     0.0000   0.0000   0.0000   0.0000   0.0000   0.0000   0.0000   0.0000
     0.0000   0.0000   0.0000   0.0000   0.0000   0.0000   0.0000   0.0000
     0.0000   0.0000   0.0000   0.0000   0.0000   0.0000   0.0000   0.0000
     0.0000   0.0000   0.0000   0.0000   0.0000   0.0000   0.0000   0.0000
     0.0000   0.0000

     the Fermi energy is     1.1412 ev

!    total energy              =   -6297.43410950 Ry
     estimated scf accuracy    <          1.2E-11 Ry
     smearing contrib. (-TS)   =       0.02300918 Ry
     internal energy E=F+TS    =   -6297.45711868 Ry

     The total energy is F=E-TS. E is the sum of the following terms:
     one-electron contribution = -108568.24314277 Ry
     hartree contribution      =   54280.23106712 Ry
     xc contribution           =    -905.74123523 Ry
     ewald contribution        =   48896.29619220 Ry

     total magnetization       =     1.31 Bohr mag/cell
     absolute magnetization    =     1.70 Bohr mag/cell

     convergence has been achieved in   8 iterations

     Forces acting on atoms (cartesian axes, Ry/au):

     atom    1 type  1   force =     0.00000000    0.00000000    0.00001695
     atom    2 type  1   force =     0.00000000    0.00000000    0.00001695
     atom    3 type  1   force =     0.00000000    0.00000000    0.00001695
     atom    4 type  1   force =     0.00000000    0.00000000    0.00001695
     atom    5 type  1   force =    -0.00000000   -0.00000000    0.00000775
     atom    6 type  1   force =     0.00000000   -0.00000000    0.00000775
     atom    7 type  1   force =    -0.00000000    0.00000000    0.00000775
     atom    8 type  1   force =     0.00000000    0.00000000    0.00000775
     atom    9 type  1   force =     0.00000000    0.00000000   -0.00002400
     atom   10 type  1   force =     0.00000000    0.00000000   -0.00002400
     atom   11 type  1   force =     0.00000000    0.00000000   -0.00002400
     atom   12 type  1   force =     0.00000000    0.00000000   -0.00002400
     atom   13 type  2   force =    -0.00000000   -0.00000000    0.00000710
     atom   14 type  2   force =     0.00000000   -0.00000000    0.00000710
     atom   15 type  2   force =    -0.00000000    0.00000000    0.00000710
     atom   16 type  2   force =     0.00000000    0.00000000    0.00000710
     atom   17 type  1   force =     0.00000000    0.00000000   -0.00000780
     atom   18 type  1   force =     0.00000000    0.00000000   -0.00000780
     atom   19 type  1   force =     0.00000000    0.00000000   -0.00000780
     atom   20 type  1   force =     0.00000000    0.00000000   -0.00000780
     The non-local contrib.  to forces
     atom    1 type  1   force =     0.00000000    0.00000000   -0.23222638
     atom    2 type  1   force =     0.00000000    0.00000000   -0.23222638
     atom    3 type  1   force =     0.00000000    0.00000000   -0.23222638
     atom    4 type  1   force =     0.00000000    0.00000000   -0.23222639
     atom    5 type  1   force =     0.00000000    0.00000000   -0.01754756
     atom    6 type  1   force =    -0.00000000    0.00000000   -0.01754756
     atom    7 type  1   force =     0.00000000   -0.00000000   -0.01754756
     atom    8 type  1   force =    -0.00000000   -0.00000000   -0.01754756
     atom    9 type  1   force =     0.00000000    0.00000000   -0.17669349
     atom   10 type  1   force =     0.00000000    0.00000000   -0.17669349
     atom   11 type  1   force =     0.00000000    0.00000000   -0.17669349
     atom   12 type  1   force =     0.00000000    0.00000000   -0.17669348
     atom   13 type  2   force =     0.00000003    0.00000003   -0.03096349
     atom   14 type  2   force =    -0.00000003    0.00000003   -0.03096349
     atom   15 type  2   force =     0.00000003   -0.00000003   -0.03096349
     atom   16 type  2   force =    -0.00000003   -0.00000003   -0.03096349
     atom   17 type  1   force =     0.00000000    0.00000000    0.37916426
     atom   18 type  1   force =     0.00000000    0.00000000    0.37916423
     atom   19 type  1   force =     0.00000000    0.00000000    0.37916423
     atom   20 type  1   force =     0.00000000    0.00000000    0.37916421
     The ionic contribution  to forces
     atom    1 type  1   force =     0.00000000    0.00000000 -457.87682170
     atom    2 type  1   force =    -0.00000000    0.00000000 -457.87682202
     atom    3 type  1   force =     0.00000000   -0.00000000 -457.87682202
     atom    4 type  1   force =    -0.00000000   -0.00000000 -457.87682237
     atom    5 type  1   force =     0.00000031    0.00000031 -232.39442360
     atom    6 type  1   force =    -0.00000031    0.00000031 -232.39442360
     atom    7 type  1   force =     0.00000031   -0.00000031 -232.39442360
     atom    8 type  1   force =    -0.00000031   -0.00000031 -232.39442360
     atom    9 type  1   force =     0.00000000    0.00000000    3.72201042
     atom   10 type  1   force =    -0.00000000    0.00000000    3.72202153
     atom   11 type  1   force =     0.00000000   -0.00000000    3.72202153
     atom   12 type  1   force =    -0.00000000   -0.00000000    3.72203107
     atom   13 type  2   force =     0.00000267    0.00000267  224.17558457
     atom   14 type  2   force =    -0.00000267    0.00000267  224.17558457
     atom   15 type  2   force =     0.00000267   -0.00000267  224.17558457
     atom   16 type  2   force =    -0.00000267   -0.00000267  224.17558457
     atom   17 type  1   force =     0.00000000    0.00000000  462.37365159
     atom   18 type  1   force =    -0.00000000    0.00000000  462.37363863
     atom   19 type  1   force =     0.00000000   -0.00000000  462.37363863
     atom   20 type  1   force =    -0.00000000   -0.00000000  462.37363086
     The local contribution  to forces
     atom    1 type  1   force =     0.00000000    0.00000000  458.09349464
     atom    2 type  1   force =    -0.00000001    0.00000000  458.09349496
     atom    3 type  1   force =     0.00000000   -0.00000001  458.09349496
     atom    4 type  1   force =    -0.00000001   -0.00000001  458.09349532
     atom    5 type  1   force =    -0.00000033   -0.00000033  232.41140600
     atom    6 type  1   force =     0.00000030   -0.00000033  232.41140600
     atom    7 type  1   force =    -0.00000033    0.00000030  232.41140600
     atom    8 type  1   force =     0.00000030    0.00000030  232.41140600
     atom    9 type  1   force =     0.00000000    0.00000000   -3.55640044
     atom   10 type  1   force =    -0.00000001    0.00000000   -3.55641156
     atom   11 type  1   force =     0.00000000   -0.00000001   -3.55641156
     atom   12 type  1   force =    -0.00000001   -0.00000001   -3.55642111
     atom   13 type  2   force =    -0.00000272   -0.00000272 -224.14624733
     atom   14 type  2   force =     0.00000268   -0.00000272 -224.14624733
     atom   15 type  2   force =    -0.00000272    0.00000268 -224.14624733
     atom   16 type  2   force =     0.00000268    0.00000268 -224.14624733
     atom   17 type  1   force =     0.00000000    0.00000000 -462.72767508
     atom   18 type  1   force =    -0.00000001   -0.00000000 -462.72766208
     atom   19 type  1   force =     0.00000000   -0.00000001 -462.72766208
     atom   20 type  1   force =    -0.00000001   -0.00000001 -462.72765430
     The core correction contribution to forces
     atom    1 type  1   force =    -0.00000000   -0.00000000    0.01557105
     atom    2 type  1   force =     0.00000000   -0.00000000    0.01557105
     atom    3 type  1   force =    -0.00000000    0.00000000    0.01557105
     atom    4 type  1   force =     0.00000000    0.00000000    0.01557105
     atom    5 type  1   force =     0.00000000    0.00000000    0.00057263
     atom    6 type  1   force =     0.00000000    0.00000000    0.00057263
     atom    7 type  1   force =     0.00000000    0.00000000    0.00057263
     atom    8 type  1   force =     0.00000000    0.00000000    0.00057263
     atom    9 type  1   force =    -0.00000000   -0.00000000    0.01105906
     atom   10 type  1   force =     0.00000000   -0.00000000    0.01105906
     atom   11 type  1   force =    -0.00000000    0.00000000    0.01105906
     atom   12 type  1   force =     0.00000000    0.00000000    0.01105906
     atom   13 type  2   force =    -0.00000000   -0.00000000    0.00162483
     atom   14 type  2   force =     0.00000000   -0.00000000    0.00162483
     atom   15 type  2   force =    -0.00000000    0.00000000    0.00162483
     atom   16 type  2   force =     0.00000000    0.00000000    0.00162483
     atom   17 type  1   force =    -0.00000000   -0.00000000   -0.02515415
     atom   18 type  1   force =     0.00000000   -0.00000000   -0.02515415
     atom   19 type  1   force =    -0.00000000    0.00000000   -0.02515415
     atom   20 type  1   force =     0.00000000    0.00000000   -0.02515414
     The Hubbard contrib.    to forces
     atom    1 type  1   force =     0.00000000    0.00000000    0.00000000
     atom    2 type  1   force =     0.00000000    0.00000000    0.00000000
     atom    3 type  1   force =     0.00000000    0.00000000    0.00000000
     atom    4 type  1   force =     0.00000000    0.00000000    0.00000000
     atom    5 type  1   force =     0.00000000    0.00000000    0.00000000
     atom    6 type  1   force =     0.00000000    0.00000000    0.00000000
     atom    7 type  1   force =     0.00000000    0.00000000    0.00000000
     atom    8 type  1   force =     0.00000000    0.00000000    0.00000000
     atom    9 type  1   force =     0.00000000    0.00000000    0.00000000
     atom   10 type  1   force =     0.00000000    0.00000000    0.00000000
     atom   11 type  1   force =     0.00000000    0.00000000    0.00000000
     atom   12 type  1   force =     0.00000000    0.00000000    0.00000000
     atom   13 type  2   force =     0.00000000    0.00000000    0.00000000
     atom   14 type  2   force =     0.00000000    0.00000000    0.00000000
     atom   15 type  2   force =     0.00000000    0.00000000    0.00000000
     atom   16 type  2   force =     0.00000000    0.00000000    0.00000000
     atom   17 type  1   force =     0.00000000    0.00000000    0.00000000
     atom   18 type  1   force =     0.00000000    0.00000000    0.00000000
     atom   19 type  1   force =     0.00000000    0.00000000    0.00000000
     atom   20 type  1   force =     0.00000000    0.00000000    0.00000000
     The SCF correction term to forces
     atom    1 type  1   force =     0.00000000    0.00000000    0.00000000
     atom    2 type  1   force =     0.00000000    0.00000000    0.00000000
     atom    3 type  1   force =     0.00000000    0.00000000    0.00000000
     atom    4 type  1   force =     0.00000000    0.00000000    0.00000000
     atom    5 type  1   force =    -0.00000000   -0.00000000   -0.00000009
     atom    6 type  1   force =     0.00000000   -0.00000000   -0.00000009
     atom    7 type  1   force =    -0.00000000    0.00000000   -0.00000009
     atom    8 type  1   force =     0.00000000    0.00000000   -0.00000009
     atom    9 type  1   force =    -0.00000000   -0.00000000    0.00000009
     atom   10 type  1   force =    -0.00000000   -0.00000000    0.00000009
     atom   11 type  1   force =    -0.00000000    0.00000000    0.00000009
     atom   12 type  1   force =     0.00000000    0.00000000    0.00000009
     atom   13 type  2   force =    -0.00000000   -0.00000000    0.00000816
     atom   14 type  2   force =     0.00000000   -0.00000000    0.00000816
     atom   15 type  2   force =    -0.00000000    0.00000000    0.00000816
     atom   16 type  2   force =     0.00000000    0.00000000    0.00000816
     atom   17 type  1   force =     0.00000000    0.00000000    0.00000520
     atom   18 type  1   force =    -0.00000000   -0.00000000    0.00000520
     atom   19 type  1   force =    -0.00000000   -0.00000000    0.00000520
     atom   20 type  1   force =     0.00000000    0.00000000    0.00000520

     Total force =     0.000055     Total SCF correction =     0.000019
     SCF correction compared to forces is large: reduce conv_thr to get better values


     Computing stress (Cartesian axis) and pressure

          total   stress  (Ry/bohr**3)                   (kbar)     P=       -5.52
  -0.00005607   0.00000000   0.00000000           -8.25        0.00        0.00
   0.00000000  -0.00005607   0.00000000            0.00       -8.25        0.00
   0.00000000   0.00000000  -0.00000034            0.00        0.00       -0.05

     kinetic stress (kbar)  27457.37      0.00      0.00
                                0.00  27457.37      0.00
                                0.00      0.00  27534.37

     local   stress (kbar)**********     -0.00     -0.00
                               -0.00**********     -0.00
                               -0.00     -0.001873546.06

     nonloc. stress (kbar)  -2570.59      0.00      0.00
                                0.00  -2570.59      0.00
                                0.00      0.00  -2598.57

     hartree stress (kbar) 944205.68     -0.00      0.00
                               -0.00 944205.68     -0.00
                                0.00     -0.00-926023.49

     exc-cor stress (kbar)   1899.47     -0.00     -0.00
                               -0.00   1899.47     -0.00
                               -0.00     -0.00   1897.95

     corecor stress (kbar)  -6123.73     -0.00     -0.00
                               -0.00  -6123.73     -0.00
                               -0.00     -0.00  -6123.56

     ewald   stress (kbar) 917581.79      0.00      0.00
                                0.00 917581.79      0.00
                                0.00      0.00-968232.81

     hubbard stress (kbar)      0.00      0.00      0.00
                                0.00      0.00      0.00
                                0.00      0.00      0.00

     DFT-D   stress (kbar)      0.00      0.00      0.00
                                0.00      0.00      0.00
                                0.00      0.00      0.00

     XDM     stress (kbar)      0.00      0.00      0.00
                                0.00      0.00      0.00
                                0.00      0.00      0.00

     dft-nl  stress (kbar)      0.00      0.00      0.00
                                0.00      0.00      0.00
                                0.00      0.00      0.00

     TS-vdW  stress (kbar)      0.00      0.00      0.00
                                0.00      0.00      0.00
                                0.00      0.00      0.00


                                0.00      0.00      0.00
                                0.00      0.00      0.00


                                0.00      0.00      0.00

     Energy error            =      7.2E-07 Ry
     Gradient error          =      2.4E-05 Ry/Bohr

     bfgs converged in  25 scf cycles and  24 bfgs steps
     (criteria: energy <  2.0E-04 Ry, force <  1.0E-04 Ry/Bohr)

     End of BFGS Geometry Optimization

     Final energy             =   -6297.4341095003 Ry

     File ../out/alloy_100.bfgs deleted, as requested
Begin final coordinates

ATOMIC_POSITIONS (angstrom)
Ag            0.0000000000        0.0000000000       15.0000000000    0   0   0
Ag            2.8425692604        0.0000000000       15.0000000000    0   0   0
Ag            0.0000000000        2.8425692604       15.0000000000    0   0   0
Ag            2.8425692604        2.8425692604       15.0000000000    0   0   0
Ag            1.4212846410        1.4212846410       17.0127641274
Ag            4.2638538798        1.4212846410       17.0127641274
Ag            1.4212846410        4.2638538798       17.0127641274
Ag            4.2638538798        4.2638538798       17.0127641274
Ag            0.0000000000        0.0000000000       19.0592763922
Ag            2.8425692604        0.0000000000       19.0592764777
Ag            0.0000000000        2.8425692604       19.0592764777
Ag            2.8425692604        2.8425692604       19.0592765429
Ni            1.4212845725        1.4212845725       20.7605399216
Ni            4.2638539483        1.4212845725       20.7605399216
Ni            1.4212845725        4.2638539483       20.7605399216
Ni            4.2638539483        4.2638539483       20.7605399216
Ag            0.0000000000        0.0000000000       22.4201482743
Ag            2.8425692604        0.0000000000       22.4201481502
Ag            0.0000000000        2.8425692604       22.4201481502
Ag            2.8425692604        2.8425692604       22.4201480893
End final coordinates



     Writing all to output data dir ../out/alloy_100.save/
 
     init_run     :     17.11s CPU     24.56s WALL (       1 calls)
     electrons    :  12731.80s CPU  12886.54s WALL (      25 calls)
     update_pot   :     55.19s CPU     55.50s WALL (      24 calls)
     forces       :    151.26s CPU    152.07s WALL (      25 calls)
     stress       :   1341.32s CPU   1345.91s WALL (      25 calls)

     Called by init_run:
     wfcinit      :      7.58s CPU     14.34s WALL (       1 calls)
     potinit      :      0.77s CPU      1.16s WALL (       1 calls)
     hinit0       :      1.37s CPU      1.51s WALL (       1 calls)

     Called by electrons:
     c_bands      :   6334.55s CPU   6414.52s WALL (     255 calls)
     sum_band     :    591.77s CPU    599.97s WALL (     255 calls)
     v_of_rho     :    144.17s CPU    145.88s WALL (     272 calls)
     v_h          :      8.88s CPU      8.95s WALL (     272 calls)
     v_xc         :    160.20s CPU    162.09s WALL (     322 calls)
     mix_rho      :   5650.14s CPU   5699.36s WALL (     255 calls)

     Called by c_bands:
     init_us_2    :     85.53s CPU     85.97s WALL (    6720 calls)
     init_us_2:cp :     85.42s CPU     85.92s WALL (    6720 calls)
     cegterg      :   6081.15s CPU   6140.92s WALL (    3060 calls)

     Called by sum_band:
     sum_band:wei :      1.65s CPU      1.66s WALL (     255 calls)
     sum_band:loo :    566.13s CPU    573.85s WALL (     255 calls)
     sum_band:buf :     27.31s CPU     28.25s WALL (    3060 calls)
     sum_band:ini :     38.86s CPU     39.03s WALL (    3060 calls)

     Called by *egterg:
     cdiaghg      :    352.99s CPU    361.86s WALL (    9830 calls)
     cegterg:over :    561.15s CPU    563.80s WALL (    7166 calls)
     cegterg:upda :    937.43s CPU    942.38s WALL (    7166 calls)
     cegterg:last :   1074.57s CPU   1080.03s WALL (    5981 calls)
     cdiaghg:chol :     12.85s CPU     13.29s WALL (    9830 calls)
     cdiaghg:inve :      9.92s CPU     10.21s WALL (    9830 calls)
     cdiaghg:para :     17.94s CPU     18.21s WALL (   19660 calls)
     h_psi        :   2881.82s CPU   2918.14s WALL (   10226 calls)
     g_psi        :     25.23s CPU     25.39s WALL (    7166 calls)

     Called by h_psi:
     h_psi:calbec :    487.94s CPU    490.75s WALL (   10226 calls)
     vloc_psi     :   1939.77s CPU   1971.69s WALL (   10226 calls)
     add_vuspsi   :    394.39s CPU    395.62s WALL (   10226 calls)

     General routines
     calbec       :    603.43s CPU    607.45s WALL (   11726 calls)
     fft          :    140.55s CPU    141.67s WALL (    7196 calls)
     ffts         :   2341.47s CPU   2367.16s WALL ( 1335788 calls)
     fftw         :   2049.43s CPU   2081.25s WALL ( 3882544 calls)
     interpolate  :     12.16s CPU     12.23s WALL (     544 calls)
 
     Parallel routines
 
     PWSCF        :      3h58m CPU      4h 1m WALL

 
   This run was terminated on:   7: 1:46  21Mar2022            

=------------------------------------------------------------------------------=
   JOB DONE.
=------------------------------------------------------------------------------=
