
     Program PWSCF v.7.0 starts on 21Mar2022 at  3: 0:13 

     This program is part of the open-source Quantum ESPRESSO suite
     for quantum simulation of materials; please cite
         "P. Giannozzi et al., J. Phys.:Condens. Matter 21 395502 (2009);
         "P. Giannozzi et al., J. Phys.:Condens. Matter 29 465901 (2017);
         "P. Giannozzi et al., J. Chem. Phys. 152 154105 (2020);
          URL http://www.quantum-espresso.org", 
     in publications or presentations arising from this work. More details at
     http://www.quantum-espresso.org/quote

     Parallel version (MPI), running on    90 processors

     MPI processes distributed on     1 nodes
     R & G space division:  proc/nbgrp/npool/nimage =      90
     377483 MiB available memory on the printing compute node when the environment starts
 
     Reading input from base.in
Warning: card &CELL ignored
Warning: card / ignored

     Current dimensions of program PWSCF are:
     Max number of different atomic species (ntypx) = 10
     Max number of k-points (npk) =  40000
     Max angular momentum in pseudopotentials (lmaxx) =  4
     Found identity + ( -0.5000  0.0000  0.0000) symmetry
     This is a supercell, fractional translations are disabled
     Message from routine setup:
     using ibrav=0 with symmetry is DISCOURAGED, use correct ibrav instead

     Subspace diagonalization in iterative solution of the eigenvalue problem:
     one sub-group per band group will be used
     scalapack distributed-memory algorithm (size of sub-group:  9*  9 procs)

 
     Parallelization info
     --------------------
     sticks:   dense  smooth     PW     G-vecs:    dense   smooth      PW
     Min         119      39     10                62737    12039    1676
     Max         120      40     11                62810    12104    1727
     Sum       10797    3593    973              5650301  1087197  153831
 
     Using Slab Decomposition
 


     bravais-lattice index     =            0
     lattice parameter (alat)  =      10.7434  a.u.
     unit-cell volume          =    8296.9641 (a.u.)^3
     number of atoms/cell      =           20
     number of atomic types    =            1
     number of electrons       =       380.00
     number of Kohn-Sham states=          228
     kinetic-energy cutoff     =      98.0000  Ry
     charge density cutoff     =    1176.0000  Ry
     scf convergence threshold =      4.0E-09
     mixing beta               =       0.7000
     number of iterations used =            8  local-TF  mixing
     energy convergence thresh.=      2.0E-04
     force convergence thresh. =      1.0E-04
     Exchange-correlation= PBESOL
                           (   1   4  10   8   0   0   0)
     nstep                     =           50


     celldm(1)=  10.743355  celldm(2)=   0.000000  celldm(3)=   0.000000
     celldm(4)=   0.000000  celldm(5)=   0.000000  celldm(6)=   0.000000

     crystal axes: (cart. coord. in units of alat)
               a(1) = (   1.000000   0.000000   0.000000 )  
               a(2) = (   0.000000   1.000000   0.000000 )  
               a(3) = (   0.000000   0.000000   6.691130 )  

     reciprocal axes: (cart. coord. in units 2 pi/alat)
               b(1) = (  1.000000  0.000000  0.000000 )  
               b(2) = (  0.000000  1.000000  0.000000 )  
               b(3) = (  0.000000  0.000000  0.149452 )  


     PseudoPot. # 1 for Ag read from file:
     ../pseudo/Ag.upf
     MD5 check sum: ad830d0ddad01bb1c4c3455ef2da8ae5
     Pseudo is Norm-conserving + core correction, Zval = 19.0
     Generated using ONCVPSP code by D. R. Hamann
     Using radial grid of 1538 points,  6 beta functions with: 
                l(1) =   0
                l(2) =   0
                l(3) =   1
                l(4) =   1
                l(5) =   2
                l(6) =   2

     atomic species   valence    mass     pseudopotential
        Ag            19.00   107.86820     Ag( 1.00)

      8 Sym. Ops. (no inversion) found


                                    s                        frac. trans.

      isym =  1     identity                                     

 cryst.   s( 1) = (     1          0          0      )
                  (     0          1          0      )
                  (     0          0          1      )

 cart.    s( 1) = (  1.0000000  0.0000000  0.0000000 )
                  (  0.0000000  1.0000000  0.0000000 )
                  (  0.0000000  0.0000000  1.0000000 )


      isym =  2     180 deg rotation - cart. axis [0,0,1]        

 cryst.   s( 2) = (    -1          0          0      )
                  (     0         -1          0      )
                  (     0          0          1      )

 cart.    s( 2) = ( -1.0000000  0.0000000  0.0000000 )
                  (  0.0000000 -1.0000000  0.0000000 )
                  (  0.0000000  0.0000000  1.0000000 )


      isym =  3      90 deg rotation - cart. axis [0,0,-1]       

 cryst.   s( 3) = (     0         -1          0      )
                  (     1          0          0      )
                  (     0          0          1      )

 cart.    s( 3) = (  0.0000000  1.0000000  0.0000000 )
                  ( -1.0000000  0.0000000  0.0000000 )
                  (  0.0000000  0.0000000  1.0000000 )


      isym =  4      90 deg rotation - cart. axis [0,0,1]        

 cryst.   s( 4) = (     0          1          0      )
                  (    -1          0          0      )
                  (     0          0          1      )

 cart.    s( 4) = (  0.0000000 -1.0000000  0.0000000 )
                  (  1.0000000  0.0000000  0.0000000 )
                  (  0.0000000  0.0000000  1.0000000 )


      isym =  5     inv. 180 deg rotation - cart. axis [0,1,0]   

 cryst.   s( 5) = (     1          0          0      )
                  (     0         -1          0      )
                  (     0          0          1      )

 cart.    s( 5) = (  1.0000000  0.0000000  0.0000000 )
                  (  0.0000000 -1.0000000  0.0000000 )
                  (  0.0000000  0.0000000  1.0000000 )


      isym =  6     inv. 180 deg rotation - cart. axis [1,0,0]   

 cryst.   s( 6) = (    -1          0          0      )
                  (     0          1          0      )
                  (     0          0          1      )

 cart.    s( 6) = ( -1.0000000  0.0000000  0.0000000 )
                  (  0.0000000  1.0000000  0.0000000 )
                  (  0.0000000  0.0000000  1.0000000 )


      isym =  7     inv. 180 deg rotation - cart. axis [1,1,0]   

 cryst.   s( 7) = (     0         -1          0      )
                  (    -1          0          0      )
                  (     0          0          1      )

 cart.    s( 7) = (  0.0000000 -1.0000000  0.0000000 )
                  ( -1.0000000  0.0000000  0.0000000 )
                  (  0.0000000  0.0000000  1.0000000 )


      isym =  8     inv. 180 deg rotation - cart. axis [1,-1,0]  

 cryst.   s( 8) = (     0          1          0      )
                  (     1          0          0      )
                  (     0          0          1      )

 cart.    s( 8) = (  0.0000000  1.0000000  0.0000000 )
                  (  1.0000000  0.0000000  0.0000000 )
                  (  0.0000000  0.0000000  1.0000000 )


   Cartesian axes

     site n.     atom                  positions (alat units)
         1           Ag  tau(   1) = (   0.0000000   0.0000000   2.6384581  )
         2           Ag  tau(   2) = (   0.5000000   0.0000000   2.6384581  )
         3           Ag  tau(   3) = (   0.0000000   0.5000000   2.6384581  )
         4           Ag  tau(   4) = (   0.5000000   0.5000000   2.6384581  )
         5           Ag  tau(   5) = (   0.2500000   0.2500000   2.9861117  )
         6           Ag  tau(   6) = (   0.7500000   0.2500000   2.9861117  )
         7           Ag  tau(   7) = (   0.2500000   0.7500000   2.9861117  )
         8           Ag  tau(   8) = (   0.7500000   0.7500000   2.9861117  )
         9           Ag  tau(   9) = (   0.0000000   0.0000000   3.3455743  )
        10           Ag  tau(  10) = (   0.5000000   0.0000000   3.3455743  )
        11           Ag  tau(  11) = (   0.0000000   0.5000000   3.3455743  )
        12           Ag  tau(  12) = (   0.5000000   0.5000000   3.3455743  )
        13           Ag  tau(  13) = (   0.2500000   0.2500000   3.7051508  )
        14           Ag  tau(  14) = (   0.7500000   0.2500000   3.7051508  )
        15           Ag  tau(  15) = (   0.2500000   0.7500000   3.7051508  )
        16           Ag  tau(  16) = (   0.7500000   0.7500000   3.7051508  )
        17           Ag  tau(  17) = (   0.0000000   0.0000000   4.0558590  )
        18           Ag  tau(  18) = (   0.5000000   0.0000000   4.0558590  )
        19           Ag  tau(  19) = (   0.0000000   0.5000000   4.0558590  )
        20           Ag  tau(  20) = (   0.5000000   0.5000000   4.0558590  )

   Crystallographic axes

     site n.     atom                  positions (cryst. coord.)
         1           Ag  tau(   1) = (  0.0000000  0.0000000  0.3943218  )
         2           Ag  tau(   2) = (  0.5000000  0.0000000  0.3943218  )
         3           Ag  tau(   3) = (  0.0000000  0.5000000  0.3943218  )
         4           Ag  tau(   4) = (  0.5000000  0.5000000  0.3943218  )
         5           Ag  tau(   5) = (  0.2500000  0.2500000  0.4462791  )
         6           Ag  tau(   6) = (  0.7500000  0.2500000  0.4462791  )
         7           Ag  tau(   7) = (  0.2500000  0.7500000  0.4462791  )
         8           Ag  tau(   8) = (  0.7500000  0.7500000  0.4462791  )
         9           Ag  tau(   9) = (  0.0000000  0.0000000  0.5000014  )
        10           Ag  tau(  10) = (  0.5000000  0.0000000  0.5000014  )
        11           Ag  tau(  11) = (  0.0000000  0.5000000  0.5000014  )
        12           Ag  tau(  12) = (  0.5000000  0.5000000  0.5000014  )
        13           Ag  tau(  13) = (  0.2500000  0.2500000  0.5537407  )
        14           Ag  tau(  14) = (  0.7500000  0.2500000  0.5537407  )
        15           Ag  tau(  15) = (  0.2500000  0.7500000  0.5537407  )
        16           Ag  tau(  16) = (  0.7500000  0.7500000  0.5537407  )
        17           Ag  tau(  17) = (  0.0000000  0.0000000  0.6061546  )
        18           Ag  tau(  18) = (  0.5000000  0.0000000  0.6061546  )
        19           Ag  tau(  19) = (  0.0000000  0.5000000  0.6061546  )
        20           Ag  tau(  20) = (  0.5000000  0.5000000  0.6061546  )

     number of k points=     6  Marzari-Vanderbilt smearing, width (Ry)=  0.0220
                       cart. coord. in units 2pi/alat
        k(    1) = (   0.0000000   0.0000000   0.0000000), wk =   0.1250000
        k(    2) = (   0.0000000   0.2500000   0.0000000), wk =   0.5000000
        k(    3) = (   0.0000000  -0.5000000   0.0000000), wk =   0.2500000
        k(    4) = (   0.2500000   0.2500000   0.0000000), wk =   0.5000000
        k(    5) = (   0.2500000  -0.5000000   0.0000000), wk =   0.5000000
        k(    6) = (  -0.5000000  -0.5000000   0.0000000), wk =   0.1250000

                       cryst. coord.
        k(    1) = (   0.0000000   0.0000000   0.0000000), wk =   0.1250000
        k(    2) = (   0.0000000   0.2500000   0.0000000), wk =   0.5000000
        k(    3) = (   0.0000000  -0.5000000   0.0000000), wk =   0.2500000
        k(    4) = (   0.2500000   0.2500000   0.0000000), wk =   0.5000000
        k(    5) = (   0.2500000  -0.5000000   0.0000000), wk =   0.5000000
        k(    6) = (  -0.5000000  -0.5000000   0.0000000), wk =   0.1250000

     Dense  grid:  5650301 G-vectors     FFT dimensions: ( 120, 120, 800)

     Smooth grid:  1087197 G-vectors     FFT dimensions: (  72,  72, 480)

     Dynamical RAM for                 wfc:       5.25 MB

     Dynamical RAM for     wfc (w. buffer):      36.77 MB

     Dynamical RAM for           str. fact:       0.96 MB

     Dynamical RAM for           local pot:       0.00 MB

     Dynamical RAM for          nlocal pot:       8.29 MB

     Dynamical RAM for                qrad:       2.75 MB

     Dynamical RAM for          rho,v,vnew:       5.84 MB

     Dynamical RAM for               rhoin:       1.95 MB

     Dynamical RAM for            rho*nmix:      15.33 MB

     Dynamical RAM for           G-vectors:       3.69 MB

     Dynamical RAM for          h,s,v(r/c):       0.11 MB

     Dynamical RAM for          <psi|beta>:       1.25 MB

     Dynamical RAM for                 psi:      10.51 MB

     Dynamical RAM for                hpsi:      10.51 MB

     Dynamical RAM for      wfcinit/wfcrot:      11.70 MB

     Estimated static dynamical RAM per process >      67.11 MB

     Estimated max dynamical RAM per process >     108.55 MB

     Estimated total dynamical RAM >       9.54 GB

     Atomic positions and unit cell read from directory:
     ../out/pure_100.save/
 

     The initial density is read from file :
     ../out/pure_100.save/charge-density

     Starting wfcs from file

     total cpu time spent up to now is       16.4 secs

     Self-consistent Calculation

     iteration #  1     ecut=    98.00 Ry     beta= 0.70
     Davidson diagonalization with overlap

---- Real-time Memory Report at c_bands before calling an iterative solver
           170 MiB given to the printing process from OS
             0 MiB allocation reported by mallinfo(arena+hblkhd)
        367663 MiB available memory on the node where the printing process lives
------------------
     ethr =  1.00E-05,  avg # of iterations =  6.5

     Threshold (ethr) on eigenvalues was too large:
     Diagonalizing with lowered threshold

     Davidson diagonalization with overlap

---- Real-time Memory Report at c_bands before calling an iterative solver
           190 MiB given to the printing process from OS
             0 MiB allocation reported by mallinfo(arena+hblkhd)
        361872 MiB available memory on the node where the printing process lives
------------------
     ethr =  7.69E-09,  avg # of iterations =  2.0

     negative rho (up, down):  4.521E-07 0.000E+00

     total cpu time spent up to now is       57.9 secs

     total energy              =   -6195.58882420 Ry
     estimated scf accuracy    <       0.00003277 Ry

     iteration #  2     ecut=    98.00 Ry     beta= 0.70
     Davidson diagonalization with overlap

---- Real-time Memory Report at c_bands before calling an iterative solver
           191 MiB given to the printing process from OS
             0 MiB allocation reported by mallinfo(arena+hblkhd)
        361846 MiB available memory on the node where the printing process lives
------------------
     ethr =  8.62E-09,  avg # of iterations =  1.7

     negative rho (up, down):  3.502E-06 0.000E+00

     total cpu time spent up to now is      113.0 secs

     total energy              =   -6195.58882462 Ry
     estimated scf accuracy    <       0.00000880 Ry

     iteration #  3     ecut=    98.00 Ry     beta= 0.70
     Davidson diagonalization with overlap

---- Real-time Memory Report at c_bands before calling an iterative solver
           196 MiB given to the printing process from OS
             0 MiB allocation reported by mallinfo(arena+hblkhd)
        361729 MiB available memory on the node where the printing process lives
------------------
     ethr =  2.32E-09,  avg # of iterations =  1.7

     negative rho (up, down):  6.986E-06 0.000E+00

     total cpu time spent up to now is      178.8 secs

     total energy              =   -6195.58882495 Ry
     estimated scf accuracy    <       0.00000093 Ry

     iteration #  4     ecut=    98.00 Ry     beta= 0.70
     Davidson diagonalization with overlap

---- Real-time Memory Report at c_bands before calling an iterative solver
           197 MiB given to the printing process from OS
             0 MiB allocation reported by mallinfo(arena+hblkhd)
        361705 MiB available memory on the node where the printing process lives
------------------
     ethr =  2.46E-10,  avg # of iterations =  1.5

     negative rho (up, down):  7.059E-06 0.000E+00

     total cpu time spent up to now is      202.4 secs

     total energy              =   -6195.58882504 Ry
     estimated scf accuracy    <       0.00000002 Ry

     iteration #  5     ecut=    98.00 Ry     beta= 0.70
     Davidson diagonalization with overlap

---- Real-time Memory Report at c_bands before calling an iterative solver
           197 MiB given to the printing process from OS
             0 MiB allocation reported by mallinfo(arena+hblkhd)
        361699 MiB available memory on the node where the printing process lives
------------------
     ethr =  4.75E-12,  avg # of iterations =  2.0

     total cpu time spent up to now is      217.0 secs

     End of self-consistent calculation

          k = 0.0000 0.0000 0.0000 (135767 PWs)   bands (ev):

   -90.3467 -90.3386 -90.3386 -90.3372 -90.3313 -90.3292 -90.3292 -90.3218
   -90.2476 -90.2411 -90.2411 -90.2338 -90.0475 -90.0403 -90.0403 -90.0369
   -90.0330 -90.0297 -90.0297 -90.0224 -53.9199 -53.9199 -53.9041 -53.9041
   -53.9020 -53.9020 -53.8898 -53.8898 -53.8777 -53.8706 -53.8706 -53.8453
   -53.8355 -53.8355 -53.8239 -53.8137 -53.8029 -53.8029 -53.7921 -53.7921
   -53.7899 -53.7899 -53.7804 -53.7804 -53.7746 -53.7746 -53.7618 -53.7618
   -53.7399 -53.7339 -53.7339 -53.7274 -53.6854 -53.6854 -53.6824 -53.6824
   -53.6033 -53.6033 -53.5987 -53.5987 -53.5934 -53.5934 -53.5883 -53.5883
   -53.5368 -53.5312 -53.5312 -53.5276 -53.5262 -53.5205 -53.5205 -53.5163
   -53.5056 -53.5056 -53.4991 -53.4991 -53.4951 -53.4951 -53.4884 -53.4884
    -6.1171  -5.2573  -4.8854  -4.8612  -4.7891  -4.7891  -4.7666  -4.7666
    -4.7452  -4.7391  -4.6584  -4.6584  -4.5233  -4.4658  -4.4546  -4.3328
    -4.3328  -4.2661  -4.2661  -4.2612  -4.1933  -4.1634  -4.1634  -3.9520
    -3.9400  -3.6526  -3.6526  -3.5390  -3.4337  -3.4337  -3.3832  -3.3832
    -3.3226  -3.2819  -3.2819  -3.2508  -3.2508  -3.2297  -3.2297  -3.2001
    -3.2001  -3.1111  -3.1111  -3.0597  -3.0597  -3.0580  -3.0580  -2.8233
    -2.8233  -2.8196  -2.8196  -2.7001  -2.7001  -2.6976  -2.6976  -2.3737
    -2.3737  -2.3565  -2.3197  -2.3197  -2.2382  -2.2114  -2.2114  -2.0562
    -2.0562  -2.0213  -2.0044  -2.0044  -2.0007  -1.9456  -1.9000  -1.9000
    -1.8536  -1.7988  -1.6319  -1.6319  -1.6030  -1.5825  -1.5825  -1.5241
    -1.5085  -1.5085  -1.4770  -1.4770  -1.4173  -1.3648  -1.3648  -1.3410
    -1.3410  -1.3406  -1.3114  -1.3069  -1.3069  -1.2916  -1.2916  -1.2452
    -1.1237  -1.1237  -1.0496  -1.0399  -0.9298  -0.7797  -0.7687  -0.3674
     1.1844   1.1844   1.2082   1.2082   1.2578   1.2578   1.7139   1.7139
     1.7526   1.7526   1.7663   2.9501   3.8662   3.8662   4.5956   4.5956
     4.8578   4.8578   5.3890   5.3890   5.8901   5.9817   6.1369   6.5004
     6.5174   6.5174   6.8602   7.1458   7.1458   7.4498   7.4699   7.4699
     7.9333   8.4392   8.4392   8.7437   8.8313   8.8368   8.9367   9.1138
     9.1864   9.2433   9.4831   9.4831

     occupation numbers 
     1.0000   1.0000   1.0000   1.0000   1.0000   1.0000   1.0000   1.0000
     1.0000   1.0000   1.0000   1.0000   1.0000   1.0000   1.0000   1.0000
     1.0000   1.0000   1.0000   1.0000   1.0000   1.0000   1.0000   1.0000
     1.0000   1.0000   1.0000   1.0000   1.0000   1.0000   1.0000   1.0000
     1.0000   1.0000   1.0000   1.0000   1.0000   1.0000   1.0000   1.0000
     1.0000   1.0000   1.0000   1.0000   1.0000   1.0000   1.0000   1.0000
     1.0000   1.0000   1.0000   1.0000   1.0000   1.0000   1.0000   1.0000
     1.0000   1.0000   1.0000   1.0000   1.0000   1.0000   1.0000   1.0000
     1.0000   1.0000   1.0000   1.0000   1.0000   1.0000   1.0000   1.0000
     1.0000   1.0000   1.0000   1.0000   1.0000   1.0000   1.0000   1.0000
     1.0000   1.0000   1.0000   1.0000   1.0000   1.0000   1.0000   1.0000
     1.0000   1.0000   1.0000   1.0000   1.0000   1.0000   1.0000   1.0000
     1.0000   1.0000   1.0000   1.0000   1.0000   1.0000   1.0000   1.0000
     1.0000   1.0000   1.0000   1.0000   1.0000   1.0000   1.0000   1.0000
     1.0000   1.0000   1.0000   1.0000   1.0000   1.0000   1.0000   1.0000
     1.0000   1.0000   1.0000   1.0000   1.0000   1.0000   1.0000   1.0000
     1.0000   1.0000   1.0000   1.0000   1.0000   1.0000   1.0000   1.0000
     1.0000   1.0000   1.0000   1.0000   1.0000   1.0000   1.0000   1.0000
     1.0000   1.0000   1.0000   1.0000   1.0000   1.0000   1.0000   1.0000
     1.0000   1.0000   1.0000   1.0000   1.0000   1.0000   1.0000   1.0000
     1.0000   1.0000   1.0000   1.0000   1.0000   1.0000   1.0000   1.0000
     1.0000   1.0000   1.0000   1.0000   1.0000   1.0000   1.0000   1.0000
     1.0000   1.0000   1.0000   1.0000   1.0000   1.0000   1.0000   1.0000
     1.0782   1.0782   1.0819   1.0819   1.0813   1.0813   0.2766   0.2766
     0.2091   0.2091   0.1880   0.0000   0.0000   0.0000   0.0000   0.0000
     0.0000   0.0000   0.0000   0.0000   0.0000   0.0000   0.0000   0.0000
     0.0000   0.0000   0.0000   0.0000   0.0000   0.0000   0.0000   0.0000
     0.0000   0.0000   0.0000   0.0000   0.0000   0.0000   0.0000   0.0000
     0.0000   0.0000   0.0000   0.0000

          k = 0.0000 0.2500 0.0000 (135906 PWs)   bands (ev):

   -90.3455 -90.3398 -90.3376 -90.3360 -90.3324 -90.3303 -90.3281 -90.3229
   -90.2466 -90.2420 -90.2400 -90.2348 -90.0464 -90.0413 -90.0392 -90.0358
   -90.0340 -90.0308 -90.0286 -90.0234 -53.9164 -53.9042 -53.9041 -53.9008
   -53.8929 -53.8890 -53.8880 -53.8747 -53.8734 -53.8656 -53.8630 -53.8468
   -53.8404 -53.8332 -53.8307 -53.8188 -53.8187 -53.8100 -53.8075 -53.8010
   -53.7979 -53.7918 -53.7905 -53.7823 -53.7688 -53.7621 -53.7592 -53.7538
   -53.7388 -53.7346 -53.7312 -53.7254 -53.6993 -53.6966 -53.6849 -53.6828
   -53.6024 -53.5992 -53.5925 -53.5896 -53.5890 -53.5843 -53.5795 -53.5739
   -53.5358 -53.5318 -53.5307 -53.5281 -53.5253 -53.5211 -53.5203 -53.5199
   -53.5169 -53.5138 -53.5099 -53.5047 -53.5031 -53.5000 -53.4941 -53.4894
    -5.8007  -5.0072  -4.7399  -4.7243  -4.7175  -4.7055  -4.6042  -4.5982
    -4.5830  -4.5751  -4.5424  -4.5391  -4.3965  -4.3893  -4.3362  -4.2287
    -4.2067  -4.1967  -4.1546  -4.1526  -4.1485  -4.0549  -4.0452  -3.9267
    -3.7702  -3.7281  -3.6444  -3.5620  -3.5248  -3.4579  -3.4394  -3.4154
    -3.4039  -3.3893  -3.3209  -3.2916  -3.2541  -3.2037  -3.2021  -3.1400
    -3.1142  -3.1141  -3.0170  -3.0039  -2.9987  -2.9940  -2.9622  -2.9598
    -2.9368  -2.9080  -2.7841  -2.7296  -2.6962  -2.6830  -2.6810  -2.5250
    -2.5238  -2.4153  -2.3916  -2.3736  -2.3488  -2.3293  -2.2949  -2.2107
    -2.1737  -2.1374  -2.1066  -2.0904  -2.0355  -2.0005  -1.9775  -1.9054
    -1.9001  -1.7854  -1.7632  -1.7551  -1.7154  -1.6902  -1.6451  -1.6265
    -1.6248  -1.6124  -1.6007  -1.5791  -1.5495  -1.5142  -1.4856  -1.4559
    -1.4355  -1.4080  -1.3552  -1.3340  -1.3137  -1.3094  -1.2696  -1.2656
    -1.2615  -1.2113  -1.2088  -1.2009  -1.1106  -1.0558  -0.9901  -0.8613
    -0.8381   0.2346   0.4740   1.5571   1.5663   1.8502   2.2003   2.2867
     2.4681   2.4876   3.2450   3.2619   3.6336   3.9819   4.4756   4.5589
     4.7824   5.1474   5.1555   5.3225   6.1218   6.1779   6.2835   6.2850
     6.4249   6.6463   6.8002   7.0831   7.1433   7.1500   7.3699   7.7109
     7.7477   8.1586   8.2034   8.4517   8.5221   8.6088   8.7193   8.8588
     9.0364   9.3046   9.3934   9.4811

     occupation numbers 
     1.0000   1.0000   1.0000   1.0000   1.0000   1.0000   1.0000   1.0000
     1.0000   1.0000   1.0000   1.0000   1.0000   1.0000   1.0000   1.0000
     1.0000   1.0000   1.0000   1.0000   1.0000   1.0000   1.0000   1.0000
     1.0000   1.0000   1.0000   1.0000   1.0000   1.0000   1.0000   1.0000
     1.0000   1.0000   1.0000   1.0000   1.0000   1.0000   1.0000   1.0000
     1.0000   1.0000   1.0000   1.0000   1.0000   1.0000   1.0000   1.0000
     1.0000   1.0000   1.0000   1.0000   1.0000   1.0000   1.0000   1.0000
     1.0000   1.0000   1.0000   1.0000   1.0000   1.0000   1.0000   1.0000
     1.0000   1.0000   1.0000   1.0000   1.0000   1.0000   1.0000   1.0000
     1.0000   1.0000   1.0000   1.0000   1.0000   1.0000   1.0000   1.0000
     1.0000   1.0000   1.0000   1.0000   1.0000   1.0000   1.0000   1.0000
     1.0000   1.0000   1.0000   1.0000   1.0000   1.0000   1.0000   1.0000
     1.0000   1.0000   1.0000   1.0000   1.0000   1.0000   1.0000   1.0000
     1.0000   1.0000   1.0000   1.0000   1.0000   1.0000   1.0000   1.0000
     1.0000   1.0000   1.0000   1.0000   1.0000   1.0000   1.0000   1.0000
     1.0000   1.0000   1.0000   1.0000   1.0000   1.0000   1.0000   1.0000
     1.0000   1.0000   1.0000   1.0000   1.0000   1.0000   1.0000   1.0000
     1.0000   1.0000   1.0000   1.0000   1.0000   1.0000   1.0000   1.0000
     1.0000   1.0000   1.0000   1.0000   1.0000   1.0000   1.0000   1.0000
     1.0000   1.0000   1.0000   1.0000   1.0000   1.0000   1.0000   1.0000
     1.0000   1.0000   1.0000   1.0000   1.0000   1.0000   1.0000   1.0000
     1.0000   1.0000   1.0000   1.0000   1.0000   1.0000   1.0000   1.0000
     1.0000   1.0000   1.0000   1.0000   1.0000   1.0000   1.0000   1.0000
     1.0000   1.0000   1.0000   0.6406   0.6173   0.0901   0.0008   0.0002
     0.0000   0.0000   0.0000   0.0000   0.0000   0.0000   0.0000   0.0000
     0.0000   0.0000   0.0000   0.0000   0.0000   0.0000   0.0000   0.0000
     0.0000   0.0000   0.0000   0.0000   0.0000   0.0000   0.0000   0.0000
     0.0000   0.0000   0.0000   0.0000   0.0000   0.0000   0.0000   0.0000
     0.0000   0.0000   0.0000   0.0000

          k = 0.0000-0.5000 0.0000 (135922 PWs)   bands (ev):

   -90.3427 -90.3427 -90.3350 -90.3350 -90.3332 -90.3332 -90.3255 -90.3255
   -90.2443 -90.2443 -90.2374 -90.2374 -90.0439 -90.0439 -90.0366 -90.0366
   -90.0333 -90.0333 -90.0260 -90.0260 -53.9084 -53.9084 -53.8979 -53.8979
   -53.8710 -53.8710 -53.8607 -53.8607 -53.8587 -53.8587 -53.8454 -53.8454
   -53.8440 -53.8440 -53.8431 -53.8431 -53.8343 -53.8343 -53.8257 -53.8257
   -53.7963 -53.7963 -53.7865 -53.7865 -53.7613 -53.7613 -53.7365 -53.7365
   -53.7302 -53.7302 -53.7297 -53.7297 -53.7263 -53.7263 -53.6838 -53.6838
   -53.6007 -53.6007 -53.5906 -53.5906 -53.5556 -53.5556 -53.5494 -53.5494
   -53.5453 -53.5453 -53.5388 -53.5388 -53.5334 -53.5334 -53.5292 -53.5292
   -53.5229 -53.5229 -53.5183 -53.5183 -53.5023 -53.5023 -53.4918 -53.4918
    -5.0538  -5.0538  -4.7119  -4.7119  -4.4826  -4.4826  -4.3935  -4.3935
    -4.3595  -4.3595  -4.3206  -4.3206  -4.2438  -4.2438  -4.2300  -4.2300
    -4.2008  -4.2008  -4.1293  -4.1293  -3.9468  -3.9468  -3.8833  -3.8833
    -3.8695  -3.8695  -3.7591  -3.7591  -3.6187  -3.6187  -3.4756  -3.4756
    -3.3783  -3.3783  -3.2432  -3.2432  -3.1736  -3.1736  -2.9828  -2.9828
    -2.9727  -2.9727  -2.9024  -2.9024  -2.8456  -2.8456  -2.7665  -2.7665
    -2.7494  -2.7494  -2.6970  -2.6970  -2.6319  -2.6319  -2.6074  -2.6074
    -2.5589  -2.5589  -2.5260  -2.5260  -2.4160  -2.4160  -2.4103  -2.4103
    -2.3889  -2.3889  -2.3635  -2.3635  -2.3455  -2.3455  -2.3241  -2.3241
    -2.1427  -2.1427  -1.9841  -1.9841  -1.9060  -1.9060  -1.8841  -1.8841
    -1.8283  -1.8283  -1.8118  -1.8118  -1.7585  -1.7585  -1.6180  -1.6180
    -1.5033  -1.5033  -1.4250  -1.4250  -1.4171  -1.4171  -1.2675  -1.2675
    -1.2105  -1.2105  -1.2068  -1.2068  -1.1809  -1.1809  -1.1762  -1.1762
    -0.6600  -0.6600   1.3047   1.3047   2.2959   2.2959   2.3170   2.3170
     3.1150   3.1150   3.2975   3.2975   3.4718   3.4718   4.1426   4.1426
     5.1541   5.1541   5.3144   5.3144   6.0910   6.0910   7.0352   7.0352
     7.1328   7.1328   7.1922   7.1922   7.2859   7.2859   7.5346   7.5346
     7.6993   7.6993   7.9890   7.9890   8.1193   8.1193   8.5718   8.5718
     8.6920   8.6920   9.0115   9.0115

     occupation numbers 
     1.0000   1.0000   1.0000   1.0000   1.0000   1.0000   1.0000   1.0000
     1.0000   1.0000   1.0000   1.0000   1.0000   1.0000   1.0000   1.0000
     1.0000   1.0000   1.0000   1.0000   1.0000   1.0000   1.0000   1.0000
     1.0000   1.0000   1.0000   1.0000   1.0000   1.0000   1.0000   1.0000
     1.0000   1.0000   1.0000   1.0000   1.0000   1.0000   1.0000   1.0000
     1.0000   1.0000   1.0000   1.0000   1.0000   1.0000   1.0000   1.0000
     1.0000   1.0000   1.0000   1.0000   1.0000   1.0000   1.0000   1.0000
     1.0000   1.0000   1.0000   1.0000   1.0000   1.0000   1.0000   1.0000
     1.0000   1.0000   1.0000   1.0000   1.0000   1.0000   1.0000   1.0000
     1.0000   1.0000   1.0000   1.0000   1.0000   1.0000   1.0000   1.0000
     1.0000   1.0000   1.0000   1.0000   1.0000   1.0000   1.0000   1.0000
     1.0000   1.0000   1.0000   1.0000   1.0000   1.0000   1.0000   1.0000
     1.0000   1.0000   1.0000   1.0000   1.0000   1.0000   1.0000   1.0000
     1.0000   1.0000   1.0000   1.0000   1.0000   1.0000   1.0000   1.0000
     1.0000   1.0000   1.0000   1.0000   1.0000   1.0000   1.0000   1.0000
     1.0000   1.0000   1.0000   1.0000   1.0000   1.0000   1.0000   1.0000
     1.0000   1.0000   1.0000   1.0000   1.0000   1.0000   1.0000   1.0000
     1.0000   1.0000   1.0000   1.0000   1.0000   1.0000   1.0000   1.0000
     1.0000   1.0000   1.0000   1.0000   1.0000   1.0000   1.0000   1.0000
     1.0000   1.0000   1.0000   1.0000   1.0000   1.0000   1.0000   1.0000
     1.0000   1.0000   1.0000   1.0000   1.0000   1.0000   1.0000   1.0000
     1.0000   1.0000   1.0000   1.0000   1.0000   1.0000   1.0000   1.0000
     1.0000   1.0000   1.0000   1.0000   1.0000   1.0000   1.0000   1.0000
     1.0000   1.0000   1.0657   1.0657   0.0001   0.0001   0.0001   0.0001
     0.0000   0.0000   0.0000   0.0000   0.0000   0.0000   0.0000   0.0000
     0.0000   0.0000   0.0000   0.0000   0.0000   0.0000   0.0000   0.0000
     0.0000   0.0000   0.0000   0.0000   0.0000   0.0000   0.0000   0.0000
     0.0000   0.0000   0.0000   0.0000   0.0000   0.0000   0.0000   0.0000
     0.0000   0.0000   0.0000   0.0000

          k = 0.2500 0.2500 0.0000 (135950 PWs)   bands (ev):

   -90.3444 -90.3387 -90.3387 -90.3349 -90.3335 -90.3293 -90.3293 -90.3240
   -90.2457 -90.2410 -90.2410 -90.2359 -90.0454 -90.0403 -90.0403 -90.0351
   -90.0348 -90.0297 -90.0297 -90.0245 -53.9007 -53.9007 -53.8892 -53.8886
   -53.8863 -53.8863 -53.8790 -53.8756 -53.8691 -53.8590 -53.8590 -53.8468
   -53.8377 -53.8377 -53.8353 -53.8223 -53.8182 -53.8176 -53.8094 -53.8094
   -53.8087 -53.8065 -53.7997 -53.7997 -53.7616 -53.7559 -53.7520 -53.7520
   -53.7369 -53.7314 -53.7314 -53.7242 -53.6988 -53.6986 -53.6969 -53.6969
   -53.5887 -53.5887 -53.5851 -53.5849 -53.5786 -53.5786 -53.5748 -53.5745
   -53.5350 -53.5313 -53.5313 -53.5285 -53.5244 -53.5205 -53.5205 -53.5194
   -53.5193 -53.5175 -53.5147 -53.5147 -53.5089 -53.5088 -53.5041 -53.5041
    -5.4900  -4.7280  -4.5871  -4.5203  -4.5203  -4.5137  -4.5137  -4.5022
    -4.4726  -4.4603  -4.4312  -4.4209  -4.1991  -4.1836  -4.1836  -4.1719
    -4.1147  -4.1147  -4.0711  -4.0306  -4.0236  -3.9294  -3.8353  -3.8208
    -3.8208  -3.7739  -3.6148  -3.5572  -3.5572  -3.5530  -3.5530  -3.5010
    -3.4688  -3.4688  -3.3000  -3.2469  -3.1822  -3.1822  -3.1287  -3.1287
    -3.1165  -3.1165  -3.0929  -3.0906  -3.0553  -2.9570  -2.9570  -2.9180
    -2.9073  -2.9073  -2.7547  -2.7428  -2.7143  -2.7143  -2.6795  -2.6795
    -2.5429  -2.5382  -2.5382  -2.4970  -2.4970  -2.4523  -2.4441  -2.3342
    -2.2350  -2.1835  -2.1835  -2.1408  -2.1139  -2.1072  -2.1072  -1.9821
    -1.9578  -1.9152  -1.8818  -1.8401  -1.7932  -1.7932  -1.7264  -1.7205
    -1.7205  -1.7169  -1.6841  -1.6565  -1.6565  -1.5754  -1.5547  -1.5281
    -1.5139  -1.5124  -1.4667  -1.4667  -1.4591  -1.4238  -1.4138  -1.3540
    -1.3540  -1.3518  -1.3518  -1.2526  -1.1380  -1.1151  -0.8407  -0.6908
    -0.6908  -0.2075  -0.2075   0.7120   1.1125   1.1351   1.1351   2.3715
     2.7488   3.0142   3.0142   4.0093   4.2003   4.4062   4.4062   5.3465
     5.4338   5.4338   5.6072   5.6072   5.7988   6.4646   6.5884   6.6598
     6.7122   7.1007   7.2865   7.2865   7.4194   7.4194   7.4251   7.7099
     8.0461   8.4709   8.5543   8.7290   8.7290   8.7938   8.7938   9.0048
     9.0048   9.0892   9.1198   9.1198

     occupation numbers 
     1.0000   1.0000   1.0000   1.0000   1.0000   1.0000   1.0000   1.0000
     1.0000   1.0000   1.0000   1.0000   1.0000   1.0000   1.0000   1.0000
     1.0000   1.0000   1.0000   1.0000   1.0000   1.0000   1.0000   1.0000
     1.0000   1.0000   1.0000   1.0000   1.0000   1.0000   1.0000   1.0000
     1.0000   1.0000   1.0000   1.0000   1.0000   1.0000   1.0000   1.0000
     1.0000   1.0000   1.0000   1.0000   1.0000   1.0000   1.0000   1.0000
     1.0000   1.0000   1.0000   1.0000   1.0000   1.0000   1.0000   1.0000
     1.0000   1.0000   1.0000   1.0000   1.0000   1.0000   1.0000   1.0000
     1.0000   1.0000   1.0000   1.0000   1.0000   1.0000   1.0000   1.0000
     1.0000   1.0000   1.0000   1.0000   1.0000   1.0000   1.0000   1.0000
     1.0000   1.0000   1.0000   1.0000   1.0000   1.0000   1.0000   1.0000
     1.0000   1.0000   1.0000   1.0000   1.0000   1.0000   1.0000   1.0000
     1.0000   1.0000   1.0000   1.0000   1.0000   1.0000   1.0000   1.0000
     1.0000   1.0000   1.0000   1.0000   1.0000   1.0000   1.0000   1.0000
     1.0000   1.0000   1.0000   1.0000   1.0000   1.0000   1.0000   1.0000
     1.0000   1.0000   1.0000   1.0000   1.0000   1.0000   1.0000   1.0000
     1.0000   1.0000   1.0000   1.0000   1.0000   1.0000   1.0000   1.0000
     1.0000   1.0000   1.0000   1.0000   1.0000   1.0000   1.0000   1.0000
     1.0000   1.0000   1.0000   1.0000   1.0000   1.0000   1.0000   1.0000
     1.0000   1.0000   1.0000   1.0000   1.0000   1.0000   1.0000   1.0000
     1.0000   1.0000   1.0000   1.0000   1.0000   1.0000   1.0000   1.0000
     1.0000   1.0000   1.0000   1.0000   1.0000   1.0000   1.0000   1.0000
     1.0000   1.0000   1.0000   1.0000   1.0000   1.0000   1.0000   1.0000
     1.0000   1.0000   1.0000   1.0007   1.0586   1.0655   1.0655   0.0000
     0.0000   0.0000   0.0000   0.0000   0.0000   0.0000   0.0000   0.0000
     0.0000   0.0000   0.0000   0.0000   0.0000   0.0000   0.0000   0.0000
     0.0000   0.0000   0.0000   0.0000   0.0000   0.0000   0.0000   0.0000
     0.0000   0.0000   0.0000   0.0000   0.0000   0.0000   0.0000   0.0000
     0.0000   0.0000   0.0000   0.0000

          k = 0.2500-0.5000 0.0000 (135938 PWs)   bands (ev):

   -90.3416 -90.3416 -90.3361 -90.3361 -90.3321 -90.3321 -90.3266 -90.3266
   -90.2433 -90.2433 -90.2384 -90.2384 -90.0428 -90.0428 -90.0377 -90.0377
   -90.0322 -90.0322 -90.0271 -90.0271 -53.8930 -53.8930 -53.8828 -53.8828
   -53.8668 -53.8668 -53.8575 -53.8575 -53.8541 -53.8541 -53.8448 -53.8448
   -53.8444 -53.8444 -53.8426 -53.8426 -53.8378 -53.8378 -53.8300 -53.8300
   -53.8133 -53.8133 -53.8039 -53.8039 -53.7536 -53.7536 -53.7334 -53.7334
   -53.7294 -53.7294 -53.7287 -53.7287 -53.7259 -53.7259 -53.6976 -53.6976
   -53.5867 -53.5867 -53.5765 -53.5765 -53.5546 -53.5546 -53.5503 -53.5503
   -53.5443 -53.5443 -53.5397 -53.5397 -53.5328 -53.5328 -53.5297 -53.5297
   -53.5221 -53.5221 -53.5188 -53.5188 -53.5170 -53.5170 -53.5065 -53.5065
    -4.7826  -4.7826  -4.4234  -4.4234  -4.3036  -4.3036  -4.2619  -4.2619
    -4.2394  -4.2394  -4.1739  -4.1739  -4.1419  -4.1419  -4.0335  -4.0335
    -4.0313  -4.0313  -3.9909  -3.9909  -3.8944  -3.8944  -3.8361  -3.8361
    -3.7456  -3.7456  -3.7177  -3.7177  -3.6241  -3.6241  -3.4648  -3.4648
    -3.4166  -3.4166  -3.2839  -3.2839  -3.2345  -3.2345  -3.0909  -3.0909
    -3.0827  -3.0827  -2.9683  -2.9683  -2.9254  -2.9254  -2.9033  -2.9033
    -2.8819  -2.8819  -2.8373  -2.8373  -2.7309  -2.7309  -2.6716  -2.6716
    -2.6294  -2.6294  -2.5314  -2.5314  -2.4418  -2.4418  -2.4101  -2.4101
    -2.3972  -2.3972  -2.3000  -2.3000  -2.2930  -2.2930  -2.2619  -2.2619
    -2.0975  -2.0975  -2.0714  -2.0714  -2.0599  -2.0599  -2.0207  -2.0207
    -1.8736  -1.8736  -1.8544  -1.8544  -1.8051  -1.8051  -1.7587  -1.7587
    -1.7491  -1.7491  -1.4738  -1.4738  -1.4464  -1.4464  -1.4219  -1.4219
    -1.4011  -1.4011  -1.2322  -1.2322  -1.2086  -1.2086  -1.1767  -1.1767
    -0.1457  -0.1457  -0.0959  -0.0959   0.8834   0.8834   1.7410   1.7410
     2.3970   2.3970   3.8632   3.8632   4.2246   4.2246   5.3141   5.3141
     5.5669   5.5669   6.2965   6.2965   6.3672   6.3672   7.3183   7.3183
     7.4943   7.4943   7.5714   7.5714   7.9066   7.9066   7.9468   7.9468
     8.0005   8.0005   8.2562   8.2562   8.2703   8.2703   8.8879   8.8879
     9.0101   9.0101   9.2766   9.2766

     occupation numbers 
     1.0000   1.0000   1.0000   1.0000   1.0000   1.0000   1.0000   1.0000
     1.0000   1.0000   1.0000   1.0000   1.0000   1.0000   1.0000   1.0000
     1.0000   1.0000   1.0000   1.0000   1.0000   1.0000   1.0000   1.0000
     1.0000   1.0000   1.0000   1.0000   1.0000   1.0000   1.0000   1.0000
     1.0000   1.0000   1.0000   1.0000   1.0000   1.0000   1.0000   1.0000
     1.0000   1.0000   1.0000   1.0000   1.0000   1.0000   1.0000   1.0000
     1.0000   1.0000   1.0000   1.0000   1.0000   1.0000   1.0000   1.0000
     1.0000   1.0000   1.0000   1.0000   1.0000   1.0000   1.0000   1.0000
     1.0000   1.0000   1.0000   1.0000   1.0000   1.0000   1.0000   1.0000
     1.0000   1.0000   1.0000   1.0000   1.0000   1.0000   1.0000   1.0000
     1.0000   1.0000   1.0000   1.0000   1.0000   1.0000   1.0000   1.0000
     1.0000   1.0000   1.0000   1.0000   1.0000   1.0000   1.0000   1.0000
     1.0000   1.0000   1.0000   1.0000   1.0000   1.0000   1.0000   1.0000
     1.0000   1.0000   1.0000   1.0000   1.0000   1.0000   1.0000   1.0000
     1.0000   1.0000   1.0000   1.0000   1.0000   1.0000   1.0000   1.0000
     1.0000   1.0000   1.0000   1.0000   1.0000   1.0000   1.0000   1.0000
     1.0000   1.0000   1.0000   1.0000   1.0000   1.0000   1.0000   1.0000
     1.0000   1.0000   1.0000   1.0000   1.0000   1.0000   1.0000   1.0000
     1.0000   1.0000   1.0000   1.0000   1.0000   1.0000   1.0000   1.0000
     1.0000   1.0000   1.0000   1.0000   1.0000   1.0000   1.0000   1.0000
     1.0000   1.0000   1.0000   1.0000   1.0000   1.0000   1.0000   1.0000
     1.0000   1.0000   1.0000   1.0000   1.0000   1.0000   1.0000   1.0000
     1.0000   1.0000   1.0000   1.0000   1.0000   1.0000   1.0000   1.0000
     1.0000   1.0000   1.0000   1.0000   1.0080   1.0080   0.2280   0.2280
     0.0000   0.0000   0.0000   0.0000   0.0000   0.0000   0.0000   0.0000
     0.0000   0.0000   0.0000   0.0000   0.0000   0.0000   0.0000   0.0000
     0.0000   0.0000   0.0000   0.0000   0.0000   0.0000   0.0000   0.0000
     0.0000   0.0000   0.0000   0.0000   0.0000   0.0000   0.0000   0.0000
     0.0000   0.0000   0.0000   0.0000

          k =-0.5000-0.5000 0.0000 (136072 PWs)   bands (ev):

   -90.3388 -90.3388 -90.3388 -90.3388 -90.3294 -90.3294 -90.3294 -90.3294
   -90.2409 -90.2409 -90.2409 -90.2409 -90.0403 -90.0403 -90.0403 -90.0403
   -90.0297 -90.0297 -90.0297 -90.0297 -53.8609 -53.8609 -53.8609 -53.8609
   -53.8533 -53.8533 -53.8533 -53.8533 -53.8491 -53.8491 -53.8491 -53.8491
   -53.8435 -53.8435 -53.8435 -53.8435 -53.8411 -53.8411 -53.8411 -53.8411
   -53.8367 -53.8367 -53.8367 -53.8367 -53.7302 -53.7302 -53.7302 -53.7302
   -53.7284 -53.7284 -53.7284 -53.7284 -53.7265 -53.7265 -53.7265 -53.7265
   -53.5525 -53.5525 -53.5525 -53.5525 -53.5523 -53.5523 -53.5523 -53.5523
   -53.5421 -53.5421 -53.5421 -53.5421 -53.5419 -53.5419 -53.5419 -53.5419
   -53.5309 -53.5309 -53.5309 -53.5309 -53.5202 -53.5202 -53.5202 -53.5202
    -4.3252  -4.3252  -4.3252  -4.3252  -4.0361  -4.0361  -4.0361  -4.0361
    -3.9632  -3.9632  -3.9632  -3.9632  -3.8656  -3.8656  -3.8656  -3.8656
    -3.7434  -3.7434  -3.7434  -3.7434  -3.7410  -3.7410  -3.7410  -3.7410
    -3.7278  -3.7278  -3.7278  -3.7278  -3.5591  -3.5591  -3.5591  -3.5591
    -3.5056  -3.5056  -3.5056  -3.5056  -3.4982  -3.4982  -3.4982  -3.4982
    -3.1371  -3.1371  -3.1371  -3.1371  -3.0562  -3.0562  -3.0562  -3.0562
    -2.8406  -2.8406  -2.8406  -2.8406  -2.5630  -2.5630  -2.5630  -2.5630
    -2.5482  -2.5482  -2.5482  -2.5482  -2.4340  -2.4340  -2.4340  -2.4340
    -2.3696  -2.3696  -2.3696  -2.3696  -2.2790  -2.2790  -2.2790  -2.2790
    -2.1228  -2.1228  -2.1228  -2.1228  -2.0687  -2.0687  -2.0687  -2.0687
    -2.0598  -2.0598  -2.0598  -2.0598  -2.0441  -2.0441  -2.0441  -2.0441
    -1.8959  -1.8959  -1.8959  -1.8959  -1.5545  -1.5545  -1.5545  -1.5545
    -1.4424  -1.4424  -1.4424  -1.4424  -1.1650  -1.1650  -1.1650  -1.1650
    -0.4832  -0.4832  -0.4832  -0.4832   0.9190   0.9190   0.9190   0.9190
     2.7718   2.7718   2.7718   2.7718   4.8704   4.8704   4.8704   4.8704
     6.6718   6.6718   6.6718   6.6718   8.1554   8.1554   8.1554   8.1554
     8.2741   8.2741   8.2741   8.2741   8.3938   8.3938   8.3938   8.3938
     8.4258   8.4258   8.4258   8.4258   8.9011   8.9011   8.9011   8.9011
     9.0816   9.0816   9.0816   9.0816

     occupation numbers 
     1.0000   1.0000   1.0000   1.0000   1.0000   1.0000   1.0000   1.0000
     1.0000   1.0000   1.0000   1.0000   1.0000   1.0000   1.0000   1.0000
     1.0000   1.0000   1.0000   1.0000   1.0000   1.0000   1.0000   1.0000
     1.0000   1.0000   1.0000   1.0000   1.0000   1.0000   1.0000   1.0000
     1.0000   1.0000   1.0000   1.0000   1.0000   1.0000   1.0000   1.0000
     1.0000   1.0000   1.0000   1.0000   1.0000   1.0000   1.0000   1.0000
     1.0000   1.0000   1.0000   1.0000   1.0000   1.0000   1.0000   1.0000
     1.0000   1.0000   1.0000   1.0000   1.0000   1.0000   1.0000   1.0000
     1.0000   1.0000   1.0000   1.0000   1.0000   1.0000   1.0000   1.0000
     1.0000   1.0000   1.0000   1.0000   1.0000   1.0000   1.0000   1.0000
     1.0000   1.0000   1.0000   1.0000   1.0000   1.0000   1.0000   1.0000
     1.0000   1.0000   1.0000   1.0000   1.0000   1.0000   1.0000   1.0000
     1.0000   1.0000   1.0000   1.0000   1.0000   1.0000   1.0000   1.0000
     1.0000   1.0000   1.0000   1.0000   1.0000   1.0000   1.0000   1.0000
     1.0000   1.0000   1.0000   1.0000   1.0000   1.0000   1.0000   1.0000
     1.0000   1.0000   1.0000   1.0000   1.0000   1.0000   1.0000   1.0000
     1.0000   1.0000   1.0000   1.0000   1.0000   1.0000   1.0000   1.0000
     1.0000   1.0000   1.0000   1.0000   1.0000   1.0000   1.0000   1.0000
     1.0000   1.0000   1.0000   1.0000   1.0000   1.0000   1.0000   1.0000
     1.0000   1.0000   1.0000   1.0000   1.0000   1.0000   1.0000   1.0000
     1.0000   1.0000   1.0000   1.0000   1.0000   1.0000   1.0000   1.0000
     1.0000   1.0000   1.0000   1.0000   1.0000   1.0000   1.0000   1.0000
     1.0000   1.0000   1.0000   1.0000   1.0000   1.0000   1.0000   1.0000
     1.0000   1.0000   1.0000   1.0000   1.0119   1.0119   1.0119   1.0119
     0.0000   0.0000   0.0000   0.0000   0.0000   0.0000   0.0000   0.0000
     0.0000   0.0000   0.0000   0.0000   0.0000   0.0000   0.0000   0.0000
     0.0000   0.0000   0.0000   0.0000   0.0000   0.0000   0.0000   0.0000
     0.0000   0.0000   0.0000   0.0000   0.0000   0.0000   0.0000   0.0000
     0.0000   0.0000   0.0000   0.0000

     the Fermi energy is     1.6549 ev

!    total energy              =   -6195.58882504 Ry
     estimated scf accuracy    <          2.1E-09 Ry
     smearing contrib. (-TS)   =       0.00062843 Ry
     internal energy E=F+TS    =   -6195.58945347 Ry

     The total energy is F=E-TS. E is the sum of the following terms:
     one-electron contribution = -104953.30035234 Ry
     hartree contribution      =   52472.70513085 Ry
     xc contribution           =    -920.04080992 Ry
     ewald contribution        =   47205.04657794 Ry

     convergence has been achieved in   5 iterations

     Forces acting on atoms (cartesian axes, Ry/au):

     atom    1 type  1   force =     0.00000000    0.00000000   -0.00546945
     atom    2 type  1   force =     0.00000000    0.00000000   -0.00546945
     atom    3 type  1   force =     0.00000000    0.00000000   -0.00546945
     atom    4 type  1   force =     0.00000000    0.00000000   -0.00546942
     atom    5 type  1   force =     0.00000003    0.00000003    0.00420101
     atom    6 type  1   force =    -0.00000003    0.00000003    0.00420101
     atom    7 type  1   force =     0.00000003   -0.00000003    0.00420101
     atom    8 type  1   force =    -0.00000003   -0.00000003    0.00420101
     atom    9 type  1   force =     0.00000000    0.00000000    0.00020030
     atom   10 type  1   force =     0.00000000    0.00000000    0.00020027
     atom   11 type  1   force =     0.00000000    0.00000000    0.00020027
     atom   12 type  1   force =     0.00000000    0.00000000    0.00020025
     atom   13 type  1   force =     0.00000000    0.00000000   -0.00183209
     atom   14 type  1   force =    -0.00000000    0.00000000   -0.00183209
     atom   15 type  1   force =     0.00000000   -0.00000000   -0.00183209
     atom   16 type  1   force =    -0.00000000   -0.00000000   -0.00183209
     atom   17 type  1   force =     0.00000000    0.00000000    0.00290023
     atom   18 type  1   force =     0.00000000    0.00000000    0.00290025
     atom   19 type  1   force =     0.00000000    0.00000000    0.00290025
     atom   20 type  1   force =     0.00000000    0.00000000    0.00290024
     The non-local contrib.  to forces
     atom    1 type  1   force =     0.00000000    0.00000000   -0.23256402
     atom    2 type  1   force =     0.00000000    0.00000000   -0.23256400
     atom    3 type  1   force =     0.00000000    0.00000000   -0.23256400
     atom    4 type  1   force =     0.00000000    0.00000000   -0.23256397
     atom    5 type  1   force =     0.00000003    0.00000003   -0.02344506
     atom    6 type  1   force =    -0.00000003    0.00000003   -0.02344506
     atom    7 type  1   force =     0.00000003   -0.00000003   -0.02344506
     atom    8 type  1   force =    -0.00000003   -0.00000003   -0.02344506
     atom    9 type  1   force =     0.00000000    0.00000000    0.00004446
     atom   10 type  1   force =     0.00000000    0.00000000    0.00004442
     atom   11 type  1   force =     0.00000000    0.00000000    0.00004442
     atom   12 type  1   force =     0.00000000    0.00000000    0.00004440
     atom   13 type  1   force =    -0.00000001   -0.00000001    0.02711752
     atom   14 type  1   force =     0.00000001   -0.00000001    0.02711752
     atom   15 type  1   force =    -0.00000001    0.00000001    0.02711752
     atom   16 type  1   force =     0.00000001    0.00000001    0.02711752
     atom   17 type  1   force =     0.00000000    0.00000000    0.22960704
     atom   18 type  1   force =     0.00000000    0.00000000    0.22960702
     atom   19 type  1   force =     0.00000000    0.00000000    0.22960702
     atom   20 type  1   force =     0.00000000    0.00000000    0.22960701
     The ionic contribution  to forces
     atom    1 type  1   force =     0.00000000    0.00000000 -456.02295957
     atom    2 type  1   force =    -0.00000000    0.00000000 -456.02295612
     atom    3 type  1   force =     0.00000000   -0.00000000 -456.02295612
     atom    4 type  1   force =    -0.00000000   -0.00000000 -456.02295275
     atom    5 type  1   force =     0.00000605    0.00000605 -230.73901695
     atom    6 type  1   force =    -0.00000605    0.00000605 -230.73901695
     atom    7 type  1   force =     0.00000605   -0.00000605 -230.73901695
     atom    8 type  1   force =    -0.00000605   -0.00000605 -230.73901695
     atom    9 type  1   force =     0.00000000    0.00000000    0.15013604
     atom   10 type  1   force =    -0.00000000    0.00000000    0.15013959
     atom   11 type  1   force =     0.00000000   -0.00000000    0.15013959
     atom   12 type  1   force =    -0.00000000   -0.00000000    0.15013941
     atom   13 type  1   force =    -0.00000203   -0.00000203  230.79907339
     atom   14 type  1   force =     0.00000203   -0.00000203  230.79907339
     atom   15 type  1   force =    -0.00000203    0.00000203  230.79907339
     atom   16 type  1   force =     0.00000203    0.00000203  230.79907339
     atom   17 type  1   force =     0.00000000    0.00000000  455.81276732
     atom   18 type  1   force =    -0.00000000    0.00000000  455.81275851
     atom   19 type  1   force =     0.00000000   -0.00000000  455.81275851
     atom   20 type  1   force =    -0.00000000   -0.00000000  455.81275981
     The local contribution  to forces
     atom    1 type  1   force =     0.00000000   -0.00000000  456.23451390
     atom    2 type  1   force =    -0.00000001    0.00000000  456.23451051
     atom    3 type  1   force =     0.00000000   -0.00000001  456.23451051
     atom    4 type  1   force =    -0.00000001   -0.00000001  456.23450718
     atom    5 type  1   force =    -0.00000608   -0.00000608  230.76615407
     atom    6 type  1   force =     0.00000605   -0.00000608  230.76615407
     atom    7 type  1   force =    -0.00000608    0.00000605  230.76615407
     atom    8 type  1   force =     0.00000605    0.00000605  230.76615407
     atom    9 type  1   force =     0.00000000    0.00000000   -0.14994309
     atom   10 type  1   force =    -0.00000001    0.00000000   -0.14994660
     atom   11 type  1   force =     0.00000000   -0.00000001   -0.14994660
     atom   12 type  1   force =    -0.00000001   -0.00000001   -0.14994642
     atom   13 type  1   force =     0.00000202    0.00000202 -230.82718994
     atom   14 type  1   force =    -0.00000205    0.00000202 -230.82718994
     atom   15 type  1   force =     0.00000202   -0.00000205 -230.82718994
     atom   16 type  1   force =    -0.00000205   -0.00000205 -230.82718994
     atom   17 type  1   force =     0.00000000   -0.00000000 -456.02408328
     atom   18 type  1   force =    -0.00000001    0.00000000 -456.02407452
     atom   19 type  1   force =     0.00000000   -0.00000001 -456.02407452
     atom   20 type  1   force =    -0.00000001   -0.00000001 -456.02407592
     The core correction contribution to forces
     atom    1 type  1   force =    -0.00000000   -0.00000000    0.01565756
     atom    2 type  1   force =     0.00000000   -0.00000000    0.01565756
     atom    3 type  1   force =    -0.00000000    0.00000000    0.01565756
     atom    4 type  1   force =     0.00000000    0.00000000    0.01565756
     atom    5 type  1   force =    -0.00000000   -0.00000000    0.00061576
     atom    6 type  1   force =     0.00000000   -0.00000000    0.00061576
     atom    7 type  1   force =    -0.00000000    0.00000000    0.00061576
     atom    8 type  1   force =     0.00000000    0.00000000    0.00061576
     atom    9 type  1   force =    -0.00000000   -0.00000000   -0.00000158
     atom   10 type  1   force =     0.00000000   -0.00000000   -0.00000158
     atom   11 type  1   force =    -0.00000000    0.00000000   -0.00000158
     atom   12 type  1   force =     0.00000000    0.00000000   -0.00000158
     atom   13 type  1   force =     0.00000000    0.00000000   -0.00083834
     atom   14 type  1   force =    -0.00000000    0.00000000   -0.00083834
     atom   15 type  1   force =     0.00000000   -0.00000000   -0.00083834
     atom   16 type  1   force =    -0.00000000   -0.00000000   -0.00083834
     atom   17 type  1   force =    -0.00000000   -0.00000000   -0.01543668
     atom   18 type  1   force =     0.00000000   -0.00000000   -0.01543668
     atom   19 type  1   force =    -0.00000000    0.00000000   -0.01543668
     atom   20 type  1   force =     0.00000000    0.00000000   -0.01543668
     The Hubbard contrib.    to forces
     atom    1 type  1   force =     0.00000000    0.00000000    0.00000000
     atom    2 type  1   force =     0.00000000    0.00000000    0.00000000
     atom    3 type  1   force =     0.00000000    0.00000000    0.00000000
     atom    4 type  1   force =     0.00000000    0.00000000    0.00000000
     atom    5 type  1   force =     0.00000000    0.00000000    0.00000000
     atom    6 type  1   force =     0.00000000    0.00000000    0.00000000
     atom    7 type  1   force =     0.00000000    0.00000000    0.00000000
     atom    8 type  1   force =     0.00000000    0.00000000    0.00000000
     atom    9 type  1   force =     0.00000000    0.00000000    0.00000000
     atom   10 type  1   force =     0.00000000    0.00000000    0.00000000
     atom   11 type  1   force =     0.00000000    0.00000000    0.00000000
     atom   12 type  1   force =     0.00000000    0.00000000    0.00000000
     atom   13 type  1   force =     0.00000000    0.00000000    0.00000000
     atom   14 type  1   force =     0.00000000    0.00000000    0.00000000
     atom   15 type  1   force =     0.00000000    0.00000000    0.00000000
     atom   16 type  1   force =     0.00000000    0.00000000    0.00000000
     atom   17 type  1   force =     0.00000000    0.00000000    0.00000000
     atom   18 type  1   force =     0.00000000    0.00000000    0.00000000
     atom   19 type  1   force =     0.00000000    0.00000000    0.00000000
     atom   20 type  1   force =     0.00000000    0.00000000    0.00000000
     The SCF correction term to forces
     atom    1 type  1   force =     0.00000000    0.00000000    0.00000000
     atom    2 type  1   force =     0.00000000    0.00000000    0.00000000
     atom    3 type  1   force =     0.00000000    0.00000000    0.00000000
     atom    4 type  1   force =     0.00000000    0.00000000    0.00000000
     atom    5 type  1   force =     0.00000002    0.00000002   -0.00010665
     atom    6 type  1   force =    -0.00000002    0.00000002   -0.00010665
     atom    7 type  1   force =     0.00000002   -0.00000002   -0.00010665
     atom    8 type  1   force =    -0.00000002   -0.00000002   -0.00010665
     atom    9 type  1   force =    -0.00000000   -0.00000000   -0.00003536
     atom   10 type  1   force =    -0.00000000   -0.00000000   -0.00003540
     atom   11 type  1   force =    -0.00000000    0.00000000   -0.00003540
     atom   12 type  1   force =     0.00000000    0.00000000   -0.00003540
     atom   13 type  1   force =     0.00000000    0.00000000    0.00000544
     atom   14 type  1   force =    -0.00000000    0.00000000    0.00000544
     atom   15 type  1   force =     0.00000000   -0.00000000    0.00000544
     atom   16 type  1   force =    -0.00000000   -0.00000000    0.00000544
     atom   17 type  1   force =    -0.00000000    0.00000000    0.00004600
     atom   18 type  1   force =     0.00000000    0.00000000    0.00004609
     atom   19 type  1   force =    -0.00000000   -0.00000000    0.00004609
     atom   20 type  1   force =     0.00000000    0.00000000    0.00004619

     Total force =     0.010855     Total SCF correction =     0.000243


     Computing stress (Cartesian axis) and pressure

          total   stress  (Ry/bohr**3)                   (kbar)     P=       -0.11
  -0.00001077   0.00000000   0.00000000           -1.58        0.00        0.00
   0.00000000  -0.00001077   0.00000000            0.00       -1.58        0.00
   0.00000000   0.00000000   0.00001929            0.00        0.00        2.84

     kinetic stress (kbar)  24997.81      0.00      0.00
                                0.00  24997.81      0.00
                                0.00      0.00  25035.42

     local   stress (kbar)**********      0.00      0.00
                                0.00**********      0.00
                                0.00      0.001813187.60

     nonloc. stress (kbar)    444.07      0.00      0.00
                                0.00    444.07      0.00
                                0.00      0.00    430.89

     hartree stress (kbar) 913434.57     -0.00      0.00
                               -0.00 913434.57      0.00
                                0.00      0.00-896528.67

     exc-cor stress (kbar)   2544.32     -0.00      0.00
                               -0.00   2544.32      0.00
                                0.00      0.00   2542.68

     corecor stress (kbar)  -6714.31     -0.00     -0.00
                               -0.00  -6714.31     -0.00
                               -0.00     -0.00  -6713.96

     ewald   stress (kbar) 887448.03      0.00     -0.00
                                0.00 887448.03     -0.00
                               -0.00     -0.00-937951.12

     hubbard stress (kbar)      0.00      0.00      0.00
                                0.00      0.00      0.00
                                0.00      0.00      0.00

     DFT-D   stress (kbar)      0.00      0.00      0.00
                                0.00      0.00      0.00
                                0.00      0.00      0.00

     XDM     stress (kbar)      0.00      0.00      0.00
                                0.00      0.00      0.00
                                0.00      0.00      0.00

     dft-nl  stress (kbar)      0.00      0.00      0.00
                                0.00      0.00      0.00
                                0.00      0.00      0.00

     TS-vdW  stress (kbar)      0.00      0.00      0.00
                                0.00      0.00      0.00
                                0.00      0.00      0.00


                                0.00      0.00      0.00
                                0.00      0.00      0.00


                                0.00      0.00      0.00


     BFGS Geometry Optimization
     Energy error            =      0.0E+00 Ry
     Gradient error          =      4.2E-03 Ry/Bohr

     number of scf cycles    =   1
     number of bfgs steps    =   0

     energy             new  =   -6195.5888250358 Ry

     new trust radius        =       0.0042010149 bohr
     new conv_thr            =       0.0000000040 Ry


ATOMIC_POSITIONS (angstrom)
Ag            0.0000000000        0.0000000000       15.0000000000    0   0   0
Ag            2.8425692604        0.0000000000       15.0000000000    0   0   0
Ag            0.0000000000        2.8425692604       15.0000000000    0   0   0
Ag            2.8425692604        2.8425692604       15.0000000000    0   0   0
Ag            1.4212845970        1.4212845970       16.9786816213
Ag            4.2638539238        1.4212845970       16.9786816213
Ag            1.4212845970        4.2638539238       16.9786816213
Ag            4.2638539238        4.2638539238       16.9786816213
Ag            0.0000000000        0.0000000000       19.0201593126
Ag            2.8425692604        0.0000000000       19.0201593916
Ag            0.0000000000        2.8425692604       19.0201593916
Ag            2.8425692604        2.8425692604       19.0201594265
Ag            1.4212846305        1.4212846305       21.0633259534
Ag            4.2638538903        1.4212846305       21.0633259534
Ag            1.4212846305        4.2638538903       21.0633259534
Ag            4.2638538903        4.2638538903       21.0633259534
Ag            0.0000000000        0.0000000000       23.0596551088
Ag            2.8425692604        0.0000000000       23.0596549869
Ag            0.0000000000        2.8425692604       23.0596549869
Ag            2.8425692604        2.8425692604       23.0596549812



     Writing config-only to output data dir ../out/pure_100.save/
     NEW-OLD atomic charge density approx. for the potential

     negative rho (up, down):  3.125E-07 0.000E+00

     total cpu time spent up to now is      250.7 secs

     Self-consistent Calculation

     iteration #  1     ecut=    98.00 Ry     beta= 0.70
     Davidson diagonalization with overlap

---- Real-time Memory Report at c_bands before calling an iterative solver
           286 MiB given to the printing process from OS
             0 MiB allocation reported by mallinfo(arena+hblkhd)
        360580 MiB available memory on the node where the printing process lives
------------------
     ethr =  1.00E-06,  avg # of iterations =  3.0

     Threshold (ethr) on eigenvalues was too large:
     Diagonalizing with lowered threshold

     Davidson diagonalization with overlap

---- Real-time Memory Report at c_bands before calling an iterative solver
           286 MiB given to the printing process from OS
             0 MiB allocation reported by mallinfo(arena+hblkhd)
        360574 MiB available memory on the node where the printing process lives
------------------
     ethr =  8.30E-10,  avg # of iterations =  3.2

     negative rho (up, down):  1.251E-06 0.000E+00

     total cpu time spent up to now is      316.7 secs

     total energy              =   -6195.58893410 Ry
     estimated scf accuracy    <       0.00000255 Ry

     iteration #  2     ecut=    98.00 Ry     beta= 0.70
     Davidson diagonalization with overlap

---- Real-time Memory Report at c_bands before calling an iterative solver
           286 MiB given to the printing process from OS
             0 MiB allocation reported by mallinfo(arena+hblkhd)
        360564 MiB available memory on the node where the printing process lives
------------------
     ethr =  6.72E-10,  avg # of iterations =  1.2

     negative rho (up, down):  3.138E-06 0.000E+00

     total cpu time spent up to now is      395.9 secs

     total energy              =   -6195.58893405 Ry
     estimated scf accuracy    <       0.00000052 Ry

     iteration #  3     ecut=    98.00 Ry     beta= 0.70
     Davidson diagonalization with overlap

---- Real-time Memory Report at c_bands before calling an iterative solver
           286 MiB given to the printing process from OS
             0 MiB allocation reported by mallinfo(arena+hblkhd)
        360557 MiB available memory on the node where the printing process lives
------------------
     ethr =  1.36E-10,  avg # of iterations =  2.0

     negative rho (up, down):  3.568E-06 0.000E+00

     total cpu time spent up to now is      422.4 secs

     total energy              =   -6195.58893409 Ry
     estimated scf accuracy    <       0.00000002 Ry

     iteration #  4     ecut=    98.00 Ry     beta= 0.70
     Davidson diagonalization with overlap

---- Real-time Memory Report at c_bands before calling an iterative solver
           286 MiB given to the printing process from OS
             0 MiB allocation reported by mallinfo(arena+hblkhd)
        360555 MiB available memory on the node where the printing process lives
------------------
     ethr =  5.23E-12,  avg # of iterations =  2.0

     total cpu time spent up to now is      435.5 secs

     End of self-consistent calculation

          k = 0.0000 0.0000 0.0000 (135767 PWs)   bands (ev):

   -90.3472 -90.3391 -90.3391 -90.3371 -90.3318 -90.3291 -90.3291 -90.3217
   -90.2500 -90.2435 -90.2435 -90.2362 -90.0465 -90.0394 -90.0394 -90.0359
   -90.0320 -90.0287 -90.0287 -90.0214 -53.9205 -53.9205 -53.9047 -53.9047
   -53.9020 -53.9020 -53.8898 -53.8898 -53.8785 -53.8717 -53.8717 -53.8453
   -53.8355 -53.8355 -53.8244 -53.8136 -53.8034 -53.8034 -53.7921 -53.7921
   -53.7904 -53.7904 -53.7804 -53.7804 -53.7768 -53.7768 -53.7632 -53.7632
   -53.7424 -53.7361 -53.7361 -53.7292 -53.6877 -53.6877 -53.6849 -53.6849
   -53.6025 -53.6025 -53.5978 -53.5978 -53.5925 -53.5925 -53.5874 -53.5874
   -53.5359 -53.5303 -53.5303 -53.5265 -53.5253 -53.5194 -53.5194 -53.5152
   -53.5047 -53.5047 -53.4981 -53.4981 -53.4942 -53.4942 -53.4874 -53.4874
    -6.1188  -5.2550  -4.8859  -4.8630  -4.7902  -4.7902  -4.7682  -4.7682
    -4.7479  -4.7403  -4.6598  -4.6598  -4.5217  -4.4633  -4.4519  -4.3303
    -4.3303  -4.2632  -4.2632  -4.2601  -4.1901  -4.1605  -4.1605  -3.9510
    -3.9398  -3.6523  -3.6523  -3.5404  -3.4323  -3.4323  -3.3845  -3.3845
    -3.3233  -3.2832  -3.2832  -3.2499  -3.2499  -3.2312  -3.2312  -3.2008
    -3.2008  -3.1121  -3.1121  -3.0611  -3.0611  -3.0597  -3.0597  -2.8233
    -2.8233  -2.8172  -2.8172  -2.6967  -2.6967  -2.6952  -2.6952  -2.3748
    -2.3748  -2.3591  -2.3191  -2.3191  -2.2371  -2.2133  -2.2133  -2.0557
    -2.0557  -2.0237  -2.0032  -2.0032  -2.0018  -1.9459  -1.8998  -1.8998
    -1.8521  -1.8002  -1.6341  -1.6341  -1.6036  -1.5820  -1.5820  -1.5241
    -1.5097  -1.5097  -1.4781  -1.4781  -1.4178  -1.3652  -1.3652  -1.3417
    -1.3417  -1.3411  -1.3117  -1.3075  -1.3075  -1.2924  -1.2924  -1.2458
    -1.1242  -1.1242  -1.0501  -1.0398  -0.9323  -0.7787  -0.7677  -0.3677
     1.1829   1.1829   1.2082   1.2082   1.2568   1.2568   1.7146   1.7146
     1.7532   1.7532   1.7639   2.9484   3.8651   3.8651   4.5944   4.5944
     4.8563   4.8563   5.3915   5.3915   5.8939   5.9844   6.1453   6.5082
     6.5171   6.5171   6.8682   7.1486   7.1486   7.4567   7.4681   7.4681
     7.9384   8.4353   8.4353   8.7491   8.8315   8.8360   8.9355   9.1123
     9.1851   9.2492   9.4789   9.4789

     occupation numbers 
     1.0000   1.0000   1.0000   1.0000   1.0000   1.0000   1.0000   1.0000
     1.0000   1.0000   1.0000   1.0000   1.0000   1.0000   1.0000   1.0000
     1.0000   1.0000   1.0000   1.0000   1.0000   1.0000   1.0000   1.0000
     1.0000   1.0000   1.0000   1.0000   1.0000   1.0000   1.0000   1.0000
     1.0000   1.0000   1.0000   1.0000   1.0000   1.0000   1.0000   1.0000
     1.0000   1.0000   1.0000   1.0000   1.0000   1.0000   1.0000   1.0000
     1.0000   1.0000   1.0000   1.0000   1.0000   1.0000   1.0000   1.0000
     1.0000   1.0000   1.0000   1.0000   1.0000   1.0000   1.0000   1.0000
     1.0000   1.0000   1.0000   1.0000   1.0000   1.0000   1.0000   1.0000
     1.0000   1.0000   1.0000   1.0000   1.0000   1.0000   1.0000   1.0000
     1.0000   1.0000   1.0000   1.0000   1.0000   1.0000   1.0000   1.0000
     1.0000   1.0000   1.0000   1.0000   1.0000   1.0000   1.0000   1.0000
     1.0000   1.0000   1.0000   1.0000   1.0000   1.0000   1.0000   1.0000
     1.0000   1.0000   1.0000   1.0000   1.0000   1.0000   1.0000   1.0000
     1.0000   1.0000   1.0000   1.0000   1.0000   1.0000   1.0000   1.0000
     1.0000   1.0000   1.0000   1.0000   1.0000   1.0000   1.0000   1.0000
     1.0000   1.0000   1.0000   1.0000   1.0000   1.0000   1.0000   1.0000
     1.0000   1.0000   1.0000   1.0000   1.0000   1.0000   1.0000   1.0000
     1.0000   1.0000   1.0000   1.0000   1.0000   1.0000   1.0000   1.0000
     1.0000   1.0000   1.0000   1.0000   1.0000   1.0000   1.0000   1.0000
     1.0000   1.0000   1.0000   1.0000   1.0000   1.0000   1.0000   1.0000
     1.0000   1.0000   1.0000   1.0000   1.0000   1.0000   1.0000   1.0000
     1.0000   1.0000   1.0000   1.0000   1.0000   1.0000   1.0000   1.0000
     1.0781   1.0781   1.0821   1.0821   1.0813   1.0813   0.2734   0.2734
     0.2065   0.2065   0.1900   0.0000   0.0000   0.0000   0.0000   0.0000
     0.0000   0.0000   0.0000   0.0000   0.0000   0.0000   0.0000   0.0000
     0.0000   0.0000   0.0000   0.0000   0.0000   0.0000   0.0000   0.0000
     0.0000   0.0000   0.0000   0.0000   0.0000   0.0000   0.0000   0.0000
     0.0000   0.0000   0.0000   0.0000

          k = 0.0000 0.2500 0.0000 (135906 PWs)   bands (ev):

   -90.3460 -90.3403 -90.3381 -90.3360 -90.3329 -90.3303 -90.3280 -90.3228
   -90.2490 -90.2445 -90.2425 -90.2373 -90.0455 -90.0404 -90.0383 -90.0348
   -90.0331 -90.0297 -90.0276 -90.0224 -53.9169 -53.9048 -53.9046 -53.9008
   -53.8929 -53.8896 -53.8880 -53.8747 -53.8742 -53.8667 -53.8638 -53.8469
   -53.8404 -53.8332 -53.8313 -53.8193 -53.8187 -53.8099 -53.8079 -53.8015
   -53.7978 -53.7922 -53.7905 -53.7822 -53.7707 -53.7644 -53.7606 -53.7555
   -53.7413 -53.7368 -53.7332 -53.7272 -53.7016 -53.6991 -53.6872 -53.6852
   -53.6016 -53.5984 -53.5916 -53.5887 -53.5880 -53.5834 -53.5786 -53.5729
   -53.5350 -53.5309 -53.5298 -53.5271 -53.5243 -53.5201 -53.5194 -53.5189
   -53.5158 -53.5128 -53.5089 -53.5038 -53.5021 -53.4991 -53.4932 -53.4884
    -5.8023  -5.0052  -4.7408  -4.7248  -4.7193  -4.7073  -4.6054  -4.6009
    -4.5846  -4.5764  -4.5440  -4.5403  -4.3953  -4.3866  -4.3345  -4.2269
    -4.2035  -4.1942  -4.1523  -4.1503  -4.1473  -4.0518  -4.0422  -3.9260
    -3.7694  -3.7277  -3.6426  -3.5624  -3.5266  -3.4573  -3.4406  -3.4165
    -3.4028  -3.3886  -3.3208  -3.2912  -3.2542  -3.2044  -3.2024  -3.1385
    -3.1151  -3.1136  -3.0183  -3.0053  -3.0006  -2.9952  -2.9625  -2.9596
    -2.9355  -2.9089  -2.7859  -2.7280  -2.6939  -2.6807  -2.6778  -2.5253
    -2.5246  -2.4137  -2.3900  -2.3741  -2.3498  -2.3311  -2.2938  -2.2103
    -2.1759  -2.1359  -2.1085  -2.0898  -2.0378  -2.0004  -1.9782  -1.9062
    -1.9011  -1.7867  -1.7637  -1.7536  -1.7162  -1.6903  -1.6453  -1.6274
    -1.6251  -1.6131  -1.6018  -1.5784  -1.5489  -1.5149  -1.4868  -1.4576
    -1.4364  -1.4085  -1.3549  -1.3346  -1.3143  -1.3105  -1.2700  -1.2665
    -1.2624  -1.2111  -1.2100  -1.2019  -1.1112  -1.0561  -0.9898  -0.8608
    -0.8389   0.2340   0.4736   1.5559   1.5652   1.8506   2.2010   2.2845
     2.4680   2.4861   3.2439   3.2609   3.6321   3.9806   4.4773   4.5605
     4.7811   5.1468   5.1537   5.3226   6.1206   6.1815   6.2821   6.2879
     6.4333   6.6458   6.8079   7.0830   7.1502   7.1513   7.3725   7.7083
     7.7545   8.1564   8.2084   8.4538   8.5229   8.6051   8.7289   8.8632
     9.0417   9.3081   9.4009   9.4869

     occupation numbers 
     1.0000   1.0000   1.0000   1.0000   1.0000   1.0000   1.0000   1.0000
     1.0000   1.0000   1.0000   1.0000   1.0000   1.0000   1.0000   1.0000
     1.0000   1.0000   1.0000   1.0000   1.0000   1.0000   1.0000   1.0000
     1.0000   1.0000   1.0000   1.0000   1.0000   1.0000   1.0000   1.0000
     1.0000   1.0000   1.0000   1.0000   1.0000   1.0000   1.0000   1.0000
     1.0000   1.0000   1.0000   1.0000   1.0000   1.0000   1.0000   1.0000
     1.0000   1.0000   1.0000   1.0000   1.0000   1.0000   1.0000   1.0000
     1.0000   1.0000   1.0000   1.0000   1.0000   1.0000   1.0000   1.0000
     1.0000   1.0000   1.0000   1.0000   1.0000   1.0000   1.0000   1.0000
     1.0000   1.0000   1.0000   1.0000   1.0000   1.0000   1.0000   1.0000
     1.0000   1.0000   1.0000   1.0000   1.0000   1.0000   1.0000   1.0000
     1.0000   1.0000   1.0000   1.0000   1.0000   1.0000   1.0000   1.0000
     1.0000   1.0000   1.0000   1.0000   1.0000   1.0000   1.0000   1.0000
     1.0000   1.0000   1.0000   1.0000   1.0000   1.0000   1.0000   1.0000
     1.0000   1.0000   1.0000   1.0000   1.0000   1.0000   1.0000   1.0000
     1.0000   1.0000   1.0000   1.0000   1.0000   1.0000   1.0000   1.0000
     1.0000   1.0000   1.0000   1.0000   1.0000   1.0000   1.0000   1.0000
     1.0000   1.0000   1.0000   1.0000   1.0000   1.0000   1.0000   1.0000
     1.0000   1.0000   1.0000   1.0000   1.0000   1.0000   1.0000   1.0000
     1.0000   1.0000   1.0000   1.0000   1.0000   1.0000   1.0000   1.0000
     1.0000   1.0000   1.0000   1.0000   1.0000   1.0000   1.0000   1.0000
     1.0000   1.0000   1.0000   1.0000   1.0000   1.0000   1.0000   1.0000
     1.0000   1.0000   1.0000   1.0000   1.0000   1.0000   1.0000   1.0000
     1.0000   1.0000   1.0000   0.6411   0.6177   0.0889   0.0008   0.0002
     0.0000   0.0000   0.0000   0.0000   0.0000   0.0000   0.0000   0.0000
     0.0000   0.0000   0.0000   0.0000   0.0000   0.0000   0.0000   0.0000
     0.0000   0.0000   0.0000   0.0000   0.0000   0.0000   0.0000   0.0000
     0.0000   0.0000   0.0000   0.0000   0.0000   0.0000   0.0000   0.0000
     0.0000   0.0000   0.0000   0.0000

          k = 0.0000-0.5000 0.0000 (135922 PWs)   bands (ev):

   -90.3432 -90.3432 -90.3355 -90.3355 -90.3331 -90.3331 -90.3254 -90.3254
   -90.2468 -90.2468 -90.2399 -90.2399 -90.0430 -90.0430 -90.0357 -90.0357
   -90.0323 -90.0323 -90.0250 -90.0250 -53.9089 -53.9089 -53.8979 -53.8979
   -53.8718 -53.8718 -53.8612 -53.8612 -53.8598 -53.8598 -53.8453 -53.8453
   -53.8441 -53.8441 -53.8434 -53.8434 -53.8342 -53.8342 -53.8257 -53.8257
   -53.7968 -53.7968 -53.7864 -53.7864 -53.7628 -53.7628 -53.7388 -53.7388
   -53.7326 -53.7326 -53.7317 -53.7317 -53.7281 -53.7281 -53.6862 -53.6862
   -53.5999 -53.5999 -53.5897 -53.5897 -53.5547 -53.5547 -53.5485 -53.5485
   -53.5443 -53.5443 -53.5378 -53.5378 -53.5325 -53.5325 -53.5283 -53.5283
   -53.5219 -53.5219 -53.5172 -53.5172 -53.5014 -53.5014 -53.4908 -53.4908
    -5.0553  -5.0553  -4.7117  -4.7117  -4.4852  -4.4852  -4.3939  -4.3939
    -4.3600  -4.3600  -4.3237  -4.3237  -4.2456  -4.2456  -4.2274  -4.2274
    -4.1976  -4.1976  -4.1289  -4.1289  -3.9477  -3.9477  -3.8801  -3.8801
    -3.8674  -3.8674  -3.7557  -3.7557  -3.6162  -3.6162  -3.4736  -3.4736
    -3.3778  -3.3778  -3.2435  -3.2435  -3.1733  -3.1733  -2.9837  -2.9837
    -2.9734  -2.9734  -2.9043  -2.9043  -2.8455  -2.8455  -2.7667  -2.7667
    -2.7502  -2.7502  -2.6979  -2.6979  -2.6321  -2.6321  -2.6050  -2.6050
    -2.5603  -2.5603  -2.5255  -2.5255  -2.4161  -2.4161  -2.4101  -2.4101
    -2.3867  -2.3867  -2.3644  -2.3644  -2.3445  -2.3445  -2.3229  -2.3229
    -2.1454  -2.1454  -1.9847  -1.9847  -1.9049  -1.9049  -1.8844  -1.8844
    -1.8296  -1.8296  -1.8126  -1.8126  -1.7594  -1.7594  -1.6190  -1.6190
    -1.5037  -1.5037  -1.4262  -1.4262  -1.4170  -1.4170  -1.2678  -1.2678
    -1.2116  -1.2116  -1.2075  -1.2075  -1.1807  -1.1807  -1.1777  -1.1777
    -0.6608  -0.6608   1.3034   1.3034   2.2947   2.2947   2.3161   2.3161
     3.1161   3.1161   3.2984   3.2984   3.4701   3.4701   4.1418   4.1418
     5.1529   5.1529   5.3130   5.3130   6.0885   6.0885   7.0383   7.0383
     7.1315   7.1315   7.1957   7.1957   7.2948   7.2948   7.5335   7.5335
     7.7065   7.7065   7.9968   7.9968   8.1209   8.1209   8.5746   8.5746
     8.6967   8.6967   9.0163   9.0163

     occupation numbers 
     1.0000   1.0000   1.0000   1.0000   1.0000   1.0000   1.0000   1.0000
     1.0000   1.0000   1.0000   1.0000   1.0000   1.0000   1.0000   1.0000
     1.0000   1.0000   1.0000   1.0000   1.0000   1.0000   1.0000   1.0000
     1.0000   1.0000   1.0000   1.0000   1.0000   1.0000   1.0000   1.0000
     1.0000   1.0000   1.0000   1.0000   1.0000   1.0000   1.0000   1.0000
     1.0000   1.0000   1.0000   1.0000   1.0000   1.0000   1.0000   1.0000
     1.0000   1.0000   1.0000   1.0000   1.0000   1.0000   1.0000   1.0000
     1.0000   1.0000   1.0000   1.0000   1.0000   1.0000   1.0000   1.0000
     1.0000   1.0000   1.0000   1.0000   1.0000   1.0000   1.0000   1.0000
     1.0000   1.0000   1.0000   1.0000   1.0000   1.0000   1.0000   1.0000
     1.0000   1.0000   1.0000   1.0000   1.0000   1.0000   1.0000   1.0000
     1.0000   1.0000   1.0000   1.0000   1.0000   1.0000   1.0000   1.0000
     1.0000   1.0000   1.0000   1.0000   1.0000   1.0000   1.0000   1.0000
     1.0000   1.0000   1.0000   1.0000   1.0000   1.0000   1.0000   1.0000
     1.0000   1.0000   1.0000   1.0000   1.0000   1.0000   1.0000   1.0000
     1.0000   1.0000   1.0000   1.0000   1.0000   1.0000   1.0000   1.0000
     1.0000   1.0000   1.0000   1.0000   1.0000   1.0000   1.0000   1.0000
     1.0000   1.0000   1.0000   1.0000   1.0000   1.0000   1.0000   1.0000
     1.0000   1.0000   1.0000   1.0000   1.0000   1.0000   1.0000   1.0000
     1.0000   1.0000   1.0000   1.0000   1.0000   1.0000   1.0000   1.0000
     1.0000   1.0000   1.0000   1.0000   1.0000   1.0000   1.0000   1.0000
     1.0000   1.0000   1.0000   1.0000   1.0000   1.0000   1.0000   1.0000
     1.0000   1.0000   1.0000   1.0000   1.0000   1.0000   1.0000   1.0000
     1.0000   1.0000   1.0658   1.0658   0.0001   0.0001   0.0001   0.0001
     0.0000   0.0000   0.0000   0.0000   0.0000   0.0000   0.0000   0.0000
     0.0000   0.0000   0.0000   0.0000   0.0000   0.0000   0.0000   0.0000
     0.0000   0.0000   0.0000   0.0000   0.0000   0.0000   0.0000   0.0000
     0.0000   0.0000   0.0000   0.0000   0.0000   0.0000   0.0000   0.0000
     0.0000   0.0000   0.0000   0.0000

          k = 0.2500 0.2500 0.0000 (135950 PWs)   bands (ev):

   -90.3449 -90.3392 -90.3392 -90.3348 -90.3340 -90.3292 -90.3292 -90.3239
   -90.2481 -90.2434 -90.2434 -90.2384 -90.0444 -90.0393 -90.0393 -90.0342
   -90.0338 -90.0287 -90.0287 -90.0235 -53.9013 -53.9013 -53.8897 -53.8892
   -53.8863 -53.8863 -53.8790 -53.8755 -53.8699 -53.8599 -53.8599 -53.8469
   -53.8377 -53.8377 -53.8359 -53.8223 -53.8186 -53.8182 -53.8099 -53.8099
   -53.8086 -53.8064 -53.7997 -53.7997 -53.7638 -53.7578 -53.7537 -53.7537
   -53.7393 -53.7335 -53.7335 -53.7260 -53.7011 -53.7009 -53.6993 -53.6993
   -53.5878 -53.5878 -53.5842 -53.5840 -53.5777 -53.5777 -53.5738 -53.5736
   -53.5341 -53.5304 -53.5304 -53.5276 -53.5234 -53.5195 -53.5195 -53.5184
   -53.5184 -53.5164 -53.5138 -53.5138 -53.5079 -53.5079 -53.5031 -53.5031
    -5.4916  -4.7261  -4.5878  -4.5216  -4.5216  -4.5151  -4.5151  -4.5039
    -4.4751  -4.4618  -4.4326  -4.4220  -4.1967  -4.1823  -4.1823  -4.1701
    -4.1123  -4.1123  -4.0685  -4.0283  -4.0208  -3.9266  -3.8342  -3.8219
    -3.8219  -3.7734  -3.6140  -3.5564  -3.5564  -3.5516  -3.5516  -3.5026
    -3.4685  -3.4685  -3.2994  -3.2459  -3.1829  -3.1829  -3.1283  -3.1283
    -3.1156  -3.1156  -3.0935  -3.0912  -3.0551  -2.9567  -2.9567  -2.9187
    -2.9083  -2.9083  -2.7543  -2.7407  -2.7160  -2.7160  -2.6790  -2.6790
    -2.5436  -2.5366  -2.5366  -2.4953  -2.4953  -2.4508  -2.4458  -2.3353
    -2.2366  -2.1838  -2.1838  -2.1403  -2.1137  -2.1091  -2.1091  -1.9828
    -1.9580  -1.9144  -1.8830  -1.8416  -1.7925  -1.7925  -1.7263  -1.7212
    -1.7212  -1.7166  -1.6846  -1.6568  -1.6568  -1.5756  -1.5553  -1.5289
    -1.5154  -1.5129  -1.4677  -1.4677  -1.4597  -1.4233  -1.4149  -1.3554
    -1.3554  -1.3520  -1.3520  -1.2537  -1.1386  -1.1156  -0.8416  -0.6917
    -0.6917  -0.2070  -0.2070   0.7111   1.1115   1.1344   1.1344   2.3729
     2.7468   3.0123   3.0123   4.0080   4.1989   4.4049   4.4049   5.3453
     5.4331   5.4331   5.6074   5.6074   5.7961   6.4681   6.5915   6.6616
     6.7207   7.1082   7.2864   7.2864   7.4193   7.4193   7.4330   7.7091
     8.0528   8.4758   8.5528   8.7307   8.7307   8.7941   8.7941   9.0146
     9.0146   9.0885   9.1239   9.1239

     occupation numbers 
     1.0000   1.0000   1.0000   1.0000   1.0000   1.0000   1.0000   1.0000
     1.0000   1.0000   1.0000   1.0000   1.0000   1.0000   1.0000   1.0000
     1.0000   1.0000   1.0000   1.0000   1.0000   1.0000   1.0000   1.0000
     1.0000   1.0000   1.0000   1.0000   1.0000   1.0000   1.0000   1.0000
     1.0000   1.0000   1.0000   1.0000   1.0000   1.0000   1.0000   1.0000
     1.0000   1.0000   1.0000   1.0000   1.0000   1.0000   1.0000   1.0000
     1.0000   1.0000   1.0000   1.0000   1.0000   1.0000   1.0000   1.0000
     1.0000   1.0000   1.0000   1.0000   1.0000   1.0000   1.0000   1.0000
     1.0000   1.0000   1.0000   1.0000   1.0000   1.0000   1.0000   1.0000
     1.0000   1.0000   1.0000   1.0000   1.0000   1.0000   1.0000   1.0000
     1.0000   1.0000   1.0000   1.0000   1.0000   1.0000   1.0000   1.0000
     1.0000   1.0000   1.0000   1.0000   1.0000   1.0000   1.0000   1.0000
     1.0000   1.0000   1.0000   1.0000   1.0000   1.0000   1.0000   1.0000
     1.0000   1.0000   1.0000   1.0000   1.0000   1.0000   1.0000   1.0000
     1.0000   1.0000   1.0000   1.0000   1.0000   1.0000   1.0000   1.0000
     1.0000   1.0000   1.0000   1.0000   1.0000   1.0000   1.0000   1.0000
     1.0000   1.0000   1.0000   1.0000   1.0000   1.0000   1.0000   1.0000
     1.0000   1.0000   1.0000   1.0000   1.0000   1.0000   1.0000   1.0000
     1.0000   1.0000   1.0000   1.0000   1.0000   1.0000   1.0000   1.0000
     1.0000   1.0000   1.0000   1.0000   1.0000   1.0000   1.0000   1.0000
     1.0000   1.0000   1.0000   1.0000   1.0000   1.0000   1.0000   1.0000
     1.0000   1.0000   1.0000   1.0000   1.0000   1.0000   1.0000   1.0000
     1.0000   1.0000   1.0000   1.0000   1.0000   1.0000   1.0000   1.0000
     1.0000   1.0000   1.0000   1.0007   1.0586   1.0656   1.0656   0.0000
     0.0000   0.0000   0.0000   0.0000   0.0000   0.0000   0.0000   0.0000
     0.0000   0.0000   0.0000   0.0000   0.0000   0.0000   0.0000   0.0000
     0.0000   0.0000   0.0000   0.0000   0.0000   0.0000   0.0000   0.0000
     0.0000   0.0000   0.0000   0.0000   0.0000   0.0000   0.0000   0.0000
     0.0000   0.0000   0.0000   0.0000

          k = 0.2500-0.5000 0.0000 (135938 PWs)   bands (ev):

   -90.3420 -90.3420 -90.3366 -90.3366 -90.3320 -90.3320 -90.3265 -90.3265
   -90.2458 -90.2458 -90.2409 -90.2409 -90.0419 -90.0419 -90.0368 -90.0368
[...]
     1.0000   1.0000   1.0000   1.0000   1.0000   1.0000   1.0000   1.0000
     1.0000   1.0000   1.0000   1.0000   1.0000   1.0000   1.0000   1.0000
     1.0000   1.0000   1.0000   1.0000   1.0000   1.0000   1.0000   1.0000
     1.0000   1.0000   1.0000   1.0000   1.0000   1.0000   1.0000   1.0000
     1.0000   1.0000   1.0000   1.0000   1.0097   1.0097   1.0097   1.0097
     0.0000   0.0000   0.0000   0.0000   0.0000   0.0000   0.0000   0.0000
     0.0000   0.0000   0.0000   0.0000   0.0000   0.0000   0.0000   0.0000
     0.0000   0.0000   0.0000   0.0000   0.0000   0.0000   0.0000   0.0000
     0.0000   0.0000   0.0000   0.0000   0.0000   0.0000   0.0000   0.0000
     0.0000   0.0000   0.0000   0.0000

     the Fermi energy is     1.6436 ev

!    total energy              =   -6195.58989329 Ry
     estimated scf accuracy    <          3.0E-11 Ry
     smearing contrib. (-TS)   =       0.00042797 Ry
     internal energy E=F+TS    =   -6195.59032125 Ry

     The total energy is F=E-TS. E is the sum of the following terms:
     one-electron contribution = -104391.45257299 Ry
     hartree contribution      =   52191.86701123 Ry
     xc contribution           =    -919.94982019 Ry
     ewald contribution        =   46923.94506070 Ry

     convergence has been achieved in   7 iterations

     Forces acting on atoms (cartesian axes, Ry/au):

     atom    1 type  1   force =     0.00000000    0.00000000   -0.00008250
     atom    2 type  1   force =     0.00000000    0.00000000   -0.00008251
     atom    3 type  1   force =     0.00000000    0.00000000   -0.00008251
     atom    4 type  1   force =     0.00000000    0.00000000   -0.00008251
     atom    5 type  1   force =    -0.00000001   -0.00000001    0.00006673
     atom    6 type  1   force =     0.00000001   -0.00000001    0.00006673
     atom    7 type  1   force =    -0.00000001    0.00000001    0.00006673
     atom    8 type  1   force =     0.00000001    0.00000001    0.00006673
     atom    9 type  1   force =     0.00000000    0.00000000    0.00003560
     atom   10 type  1   force =     0.00000000    0.00000000    0.00003561
     atom   11 type  1   force =     0.00000000    0.00000000    0.00003561
     atom   12 type  1   force =     0.00000000    0.00000000    0.00003563
     atom   13 type  1   force =     0.00000001    0.00000001   -0.00002678
     atom   14 type  1   force =    -0.00000001    0.00000001   -0.00002678
     atom   15 type  1   force =     0.00000001   -0.00000001   -0.00002678
     atom   16 type  1   force =    -0.00000001   -0.00000001   -0.00002678
     atom   17 type  1   force =     0.00000000    0.00000000    0.00000696
     atom   18 type  1   force =     0.00000000    0.00000000    0.00000695
     atom   19 type  1   force =     0.00000000    0.00000000    0.00000695
     atom   20 type  1   force =     0.00000000    0.00000000    0.00000694
     The non-local contrib.  to forces
     atom    1 type  1   force =     0.00000000    0.00000000   -0.22601895
     atom    2 type  1   force =     0.00000000    0.00000000   -0.22601896
     atom    3 type  1   force =     0.00000000    0.00000000   -0.22601896
     atom    4 type  1   force =     0.00000000    0.00000000   -0.22601897
     atom    5 type  1   force =    -0.00000002   -0.00000002   -0.03003390
     atom    6 type  1   force =     0.00000002   -0.00000002   -0.03003390
     atom    7 type  1   force =    -0.00000002    0.00000002   -0.03003390
     atom    8 type  1   force =     0.00000002    0.00000002   -0.03003390
     atom    9 type  1   force =     0.00000000    0.00000000    0.00004172
     atom   10 type  1   force =     0.00000000    0.00000000    0.00004173
     atom   11 type  1   force =     0.00000000    0.00000000    0.00004173
     atom   12 type  1   force =     0.00000000    0.00000000    0.00004176
     atom   13 type  1   force =     0.00000001    0.00000001    0.03010341
     atom   14 type  1   force =    -0.00000001    0.00000001    0.03010341
     atom   15 type  1   force =     0.00000001   -0.00000001    0.03010341
     atom   16 type  1   force =    -0.00000001   -0.00000001    0.03010341
     atom   17 type  1   force =     0.00000000    0.00000000    0.22593167
     atom   18 type  1   force =     0.00000000    0.00000000    0.22593167
     atom   19 type  1   force =     0.00000000    0.00000000    0.22593167
     atom   20 type  1   force =     0.00000000    0.00000000    0.22593167
     The ionic contribution  to forces
     atom    1 type  1   force =     0.00000000    0.00000000 -454.76521713
     atom    2 type  1   force =    -0.00000000    0.00000000 -454.76521877
     atom    3 type  1   force =     0.00000000   -0.00000000 -454.76521877
     atom    4 type  1   force =    -0.00000000   -0.00000000 -454.76522048
     atom    5 type  1   force =    -0.00000306   -0.00000306 -230.16023415
     atom    6 type  1   force =     0.00000306   -0.00000306 -230.16023415
     atom    7 type  1   force =    -0.00000306    0.00000306 -230.16023415
     atom    8 type  1   force =     0.00000306    0.00000306 -230.16023415
     atom    9 type  1   force =     0.00000000    0.00000000    0.00591369
     atom   10 type  1   force =    -0.00000000    0.00000000    0.00591482
     atom   11 type  1   force =     0.00000000   -0.00000000    0.00591482
     atom   12 type  1   force =    -0.00000000   -0.00000000    0.00591276
     atom   13 type  1   force =     0.00000194    0.00000194  230.16329586
     atom   14 type  1   force =    -0.00000194    0.00000194  230.16329586
     atom   15 type  1   force =     0.00000194   -0.00000194  230.16329586
     atom   16 type  1   force =    -0.00000194   -0.00000194  230.16329586
     atom   17 type  1   force =     0.00000000    0.00000000  454.75624215
     atom   18 type  1   force =    -0.00000000    0.00000000  454.75624271
     atom   19 type  1   force =     0.00000000   -0.00000000  454.75624271
     atom   20 type  1   force =    -0.00000000   -0.00000000  454.75624461
     The local contribution  to forces
     atom    1 type  1   force =     0.00000000    0.00000000  454.97596827
     atom    2 type  1   force =    -0.00000001   -0.00000000  454.97596991
     atom    3 type  1   force =     0.00000000   -0.00000001  454.97596991
     atom    4 type  1   force =    -0.00000001   -0.00000001  454.97597163
     atom    5 type  1   force =     0.00000305    0.00000305  230.18933566
     atom    6 type  1   force =    -0.00000307    0.00000305  230.18933566
     atom    7 type  1   force =     0.00000305   -0.00000307  230.18933566
     atom    8 type  1   force =    -0.00000307   -0.00000307  230.18933566
     atom    9 type  1   force =     0.00000000    0.00000000   -0.00592103
     atom   10 type  1   force =    -0.00000001    0.00000000   -0.00592217
     atom   11 type  1   force =     0.00000000   -0.00000001   -0.00592217
     atom   12 type  1   force =    -0.00000001   -0.00000001   -0.00592012
     atom   13 type  1   force =    -0.00000196   -0.00000196 -230.19243348
     atom   14 type  1   force =     0.00000193   -0.00000196 -230.19243348
     atom   15 type  1   force =    -0.00000196    0.00000193 -230.19243348
     atom   16 type  1   force =     0.00000193    0.00000193 -230.19243348
     atom   17 type  1   force =     0.00000000    0.00000000 -454.96699009
     atom   18 type  1   force =    -0.00000001    0.00000000 -454.96699066
     atom   19 type  1   force =     0.00000000   -0.00000001 -454.96699066
     atom   20 type  1   force =    -0.00000001   -0.00000001 -454.96699257
     The core correction contribution to forces
     atom    1 type  1   force =    -0.00000000   -0.00000000    0.01517859
     atom    2 type  1   force =     0.00000000   -0.00000000    0.01517859
     atom    3 type  1   force =    -0.00000000    0.00000000    0.01517859
     atom    4 type  1   force =     0.00000000    0.00000000    0.01517859
     atom    5 type  1   force =     0.00000000    0.00000000    0.00099476
     atom    6 type  1   force =    -0.00000000    0.00000000    0.00099476
     atom    7 type  1   force =     0.00000000   -0.00000000    0.00099476
     atom    8 type  1   force =    -0.00000000   -0.00000000    0.00099476
     atom    9 type  1   force =    -0.00000000   -0.00000000   -0.00000247
     atom   10 type  1   force =     0.00000000   -0.00000000   -0.00000247
     atom   11 type  1   force =    -0.00000000    0.00000000   -0.00000247
     atom   12 type  1   force =     0.00000000    0.00000000   -0.00000248
     atom   13 type  1   force =    -0.00000000   -0.00000000   -0.00099917
     atom   14 type  1   force =     0.00000000   -0.00000000   -0.00099917
     atom   15 type  1   force =    -0.00000000    0.00000000   -0.00099917
     atom   16 type  1   force =     0.00000000    0.00000000   -0.00099917
     atom   17 type  1   force =    -0.00000000   -0.00000000   -0.01517221
     atom   18 type  1   force =     0.00000000   -0.00000000   -0.01517221
     atom   19 type  1   force =    -0.00000000    0.00000000   -0.01517221
     atom   20 type  1   force =     0.00000000    0.00000000   -0.01517221
     The Hubbard contrib.    to forces
     atom    1 type  1   force =     0.00000000    0.00000000    0.00000000
     atom    2 type  1   force =     0.00000000    0.00000000    0.00000000
     atom    3 type  1   force =     0.00000000    0.00000000    0.00000000
     atom    4 type  1   force =     0.00000000    0.00000000    0.00000000
     atom    5 type  1   force =     0.00000000    0.00000000    0.00000000
     atom    6 type  1   force =     0.00000000    0.00000000    0.00000000
     atom    7 type  1   force =     0.00000000    0.00000000    0.00000000
     atom    8 type  1   force =     0.00000000    0.00000000    0.00000000
     atom    9 type  1   force =     0.00000000    0.00000000    0.00000000
     atom   10 type  1   force =     0.00000000    0.00000000    0.00000000
     atom   11 type  1   force =     0.00000000    0.00000000    0.00000000
     atom   12 type  1   force =     0.00000000    0.00000000    0.00000000
     atom   13 type  1   force =     0.00000000    0.00000000    0.00000000
     atom   14 type  1   force =     0.00000000    0.00000000    0.00000000
     atom   15 type  1   force =     0.00000000    0.00000000    0.00000000
     atom   16 type  1   force =     0.00000000    0.00000000    0.00000000
     atom   17 type  1   force =     0.00000000    0.00000000    0.00000000
     atom   18 type  1   force =     0.00000000    0.00000000    0.00000000
     atom   19 type  1   force =     0.00000000    0.00000000    0.00000000
     atom   20 type  1   force =     0.00000000    0.00000000    0.00000000
     The SCF correction term to forces
     atom    1 type  1   force =     0.00000000    0.00000000    0.00000000
     atom    2 type  1   force =     0.00000000    0.00000000    0.00000000
     atom    3 type  1   force =     0.00000000    0.00000000    0.00000000
     atom    4 type  1   force =     0.00000000    0.00000000    0.00000000
     atom    5 type  1   force =    -0.00000000   -0.00000000    0.00000506
     atom    6 type  1   force =     0.00000000    0.00000000    0.00000506
     atom    7 type  1   force =    -0.00000000   -0.00000000    0.00000506
     atom    8 type  1   force =     0.00000000   -0.00000000    0.00000506
     atom    9 type  1   force =    -0.00000000    0.00000000    0.00000441
     atom   10 type  1   force =     0.00000000   -0.00000000    0.00000441
     atom   11 type  1   force =     0.00000000   -0.00000000    0.00000441
     atom   12 type  1   force =     0.00000000   -0.00000000    0.00000441
     atom   13 type  1   force =    -0.00000000   -0.00000000    0.00000730
     atom   14 type  1   force =     0.00000000   -0.00000000    0.00000730
     atom   15 type  1   force =    -0.00000000    0.00000000    0.00000730
     atom   16 type  1   force =     0.00000000    0.00000000    0.00000730
     atom   17 type  1   force =     0.00000000   -0.00000000   -0.00000386
     atom   18 type  1   force =    -0.00000000   -0.00000000   -0.00000386
     atom   19 type  1   force =     0.00000000   -0.00000000   -0.00000386
     atom   20 type  1   force =    -0.00000000    0.00000000   -0.00000386

     Total force =     0.000161     Total SCF correction =     0.000021
     SCF correction compared to forces is large: reduce conv_thr to get better values


     Computing stress (Cartesian axis) and pressure

          total   stress  (Ry/bohr**3)                   (kbar)     P=       -2.60
  -0.00002654   0.00000000   0.00000000           -3.90        0.00        0.00
   0.00000000  -0.00002654   0.00000000            0.00       -3.90        0.00
   0.00000000   0.00000000  -0.00000002            0.00        0.00       -0.00

     kinetic stress (kbar)  24996.06      0.00      0.00
                                0.00  24996.06      0.00
                                0.00      0.00  25035.36

     local   stress (kbar)**********     -0.00     -0.00
                               -0.00**********     -0.00
                               -0.00     -0.001802832.33

     nonloc. stress (kbar)    442.59      0.00      0.00
                                0.00    442.59      0.00
                                0.00      0.00    429.11

     hartree stress (kbar) 908381.00     -0.00      0.00
                               -0.00 908381.00     -0.00
                                0.00     -0.00-891400.80

     exc-cor stress (kbar)   2544.75      0.00     -0.00
                                0.00   2544.75      0.00
                               -0.00      0.00   2543.10

     corecor stress (kbar)  -6714.26     -0.00     -0.00
                               -0.00  -6714.26     -0.00
                               -0.00     -0.00  -6713.92

     ewald   stress (kbar) 882343.09     -0.00      0.00
                               -0.00 882343.09      0.00
                                0.00      0.00-932725.18

     hubbard stress (kbar)      0.00      0.00      0.00
                                0.00      0.00      0.00
                                0.00      0.00      0.00

     DFT-D   stress (kbar)      0.00      0.00      0.00
                                0.00      0.00      0.00
                                0.00      0.00      0.00

     XDM     stress (kbar)      0.00      0.00      0.00
                                0.00      0.00      0.00
                                0.00      0.00      0.00

     dft-nl  stress (kbar)      0.00      0.00      0.00
                                0.00      0.00      0.00
                                0.00      0.00      0.00

     TS-vdW  stress (kbar)      0.00      0.00      0.00
                                0.00      0.00      0.00
                                0.00      0.00      0.00


                                0.00      0.00      0.00
                                0.00      0.00      0.00


                                0.00      0.00      0.00

     Energy error            =      2.5E-06 Ry
     Gradient error          =      6.7E-05 Ry/Bohr

     bfgs converged in  19 scf cycles and  18 bfgs steps
     (criteria: energy <  2.0E-04 Ry, force <  1.0E-04 Ry/Bohr)

     End of BFGS Geometry Optimization

     Final energy             =   -6195.5898932871 Ry

     File ../out/pure_100.bfgs deleted, as requested
Begin final coordinates

ATOMIC_POSITIONS (angstrom)
Ag            0.0000000000        0.0000000000       15.0000000000    0   0   0
Ag            2.8425692604        0.0000000000       15.0000000000    0   0   0
Ag            0.0000000000        2.8425692604       15.0000000000    0   0   0
Ag            2.8425692604        2.8425692604       15.0000000000    0   0   0
Ag            1.4212846541        1.4212846541       17.0140605661
Ag            4.2638538667        1.4212846541       17.0140605661
Ag            1.4212846541        4.2638538667       17.0140605661
Ag            4.2638538667        4.2638538667       17.0140605661
Ag            0.0000000000        0.0000000000       19.0655824534
Ag            2.8425692604        0.0000000000       19.0655824347
Ag            0.0000000000        2.8425692604       19.0655824347
Ag            2.8425692604        2.8425692604       19.0655823776
Ag            1.4212846215        1.4212846215       21.1173564523
Ag            4.2638538993        1.4212846215       21.1173564523
Ag            1.4212846215        4.2638538993       21.1173564523
Ag            4.2638538993        4.2638538993       21.1173564523
Ag            0.0000000000        0.0000000000       23.1319647540
Ag            2.8425692604        0.0000000000       23.1319647773
Ag            0.0000000000        2.8425692604       23.1319647773
Ag            2.8425692604        2.8425692604       23.1319648196
End final coordinates



     Writing all to output data dir ../out/pure_100.save/
 
     init_run     :     12.20s CPU     16.01s WALL (       1 calls)
     electrons    :   6905.61s CPU   6983.21s WALL (      19 calls)
     update_pot   :     21.12s CPU     21.27s WALL (      18 calls)
     forces       :     60.01s CPU     60.36s WALL (      19 calls)
     stress       :    533.03s CPU    534.83s WALL (      19 calls)

     Called by init_run:
     wfcinit      :      3.91s CPU      7.43s WALL (       1 calls)
     potinit      :      0.39s CPU      0.49s WALL (       1 calls)
     hinit0       :      0.67s CPU      0.70s WALL (       1 calls)

     Called by electrons:
     c_bands      :   2049.92s CPU   2078.42s WALL (     161 calls)
     sum_band     :    192.75s CPU    194.87s WALL (     161 calls)
     v_of_rho     :     42.23s CPU     42.87s WALL (     161 calls)
     v_h          :      4.75s CPU      4.79s WALL (     161 calls)
     v_xc         :     46.35s CPU     47.01s WALL (     199 calls)
     mix_rho      :   4617.37s CPU   4655.74s WALL (     161 calls)

     Called by c_bands:
     init_us_2    :     22.99s CPU     23.15s WALL (    2160 calls)
     init_us_2:cp :     22.96s CPU     23.13s WALL (    2160 calls)
     cegterg      :   1969.51s CPU   1986.74s WALL (     966 calls)

     Called by sum_band:
     sum_band:wei :      0.37s CPU      0.37s WALL (     161 calls)
     sum_band:loo :    184.13s CPU    186.09s WALL (     161 calls)
     sum_band:buf :      8.91s CPU      9.10s WALL (     966 calls)
     sum_band:ini :     11.23s CPU     11.28s WALL (     966 calls)

     Called by *egterg:
     cdiaghg      :    104.29s CPU    106.41s WALL (    2709 calls)
     cegterg:over :    192.50s CPU    193.45s WALL (    1971 calls)
     cegterg:upda :    321.88s CPU    323.86s WALL (    1971 calls)
     cegterg:last :    330.80s CPU    332.81s WALL (    1825 calls)
     cdiaghg:chol :      3.92s CPU      4.03s WALL (    2709 calls)
     cdiaghg:inve :      3.14s CPU      3.23s WALL (    2709 calls)
     cdiaghg:para :      5.07s CPU      5.14s WALL (    5418 calls)
     h_psi        :    927.59s CPU    937.24s WALL (    2937 calls)
     g_psi        :      8.60s CPU      8.65s WALL (    1971 calls)

     Called by h_psi:
     h_psi:calbec :    150.23s CPU    151.00s WALL (    2937 calls)
     vloc_psi     :    636.87s CPU    645.06s WALL (    2937 calls)
     add_vuspsi   :    120.24s CPU    120.70s WALL (    2937 calls)

     General routines
     calbec       :    189.22s CPU    190.28s WALL (    3507 calls)
     fft          :     45.93s CPU     46.23s WALL (    2387 calls)
     ffts         :   1971.55s CPU   1991.20s WALL ( 1080031 calls)
     fftw         :    669.99s CPU    678.08s WALL ( 1248196 calls)
     interpolate  :      3.50s CPU      3.53s WALL (     161 calls)
 
     Parallel routines
 
     PWSCF        :      2h 5m CPU      2h 7m WALL

 
   This run was terminated on:   5: 7:23  21Mar2022            

=------------------------------------------------------------------------------=
   JOB DONE.
=------------------------------------------------------------------------------=
