
     Program PWSCF v.7.0 starts on 20Mar2022 at 23:26:49 

     This program is part of the open-source Quantum ESPRESSO suite
     for quantum simulation of materials; please cite
         "P. Giannozzi et al., J. Phys.:Condens. Matter 21 395502 (2009);
         "P. Giannozzi et al., J. Phys.:Condens. Matter 29 465901 (2017);
         "P. Giannozzi et al., J. Chem. Phys. 152 154105 (2020);
          URL http://www.quantum-espresso.org", 
     in publications or presentations arising from this work. More details at
     http://www.quantum-espresso.org/quote

     Parallel version (MPI), running on    90 processors

     MPI processes distributed on     1 nodes
     R & G space division:  proc/nbgrp/npool/nimage =      90
     186239 MiB available memory on the printing compute node when the environment starts
 
     Reading input from base.in
Warning: card &CELL ignored
Warning: card / ignored

     Current dimensions of program PWSCF are:
     Max number of different atomic species (ntypx) = 10
     Max number of k-points (npk) =  40000
     Max angular momentum in pseudopotentials (lmaxx) =  4
     Message from routine iosys:
     restart disabled: needed files not found
     Found identity + ( -0.5000  0.0000  0.0000) symmetry
     This is a supercell, fractional translations are disabled
     Message from routine setup:
     using ibrav=0 with symmetry is DISCOURAGED, use correct ibrav instead

     Subspace diagonalization in iterative solution of the eigenvalue problem:
     one sub-group per band group will be used
     scalapack distributed-memory algorithm (size of sub-group:  9*  9 procs)

 
     Parallelization info
     --------------------
     sticks:   dense  smooth     PW     G-vecs:    dense   smooth      PW
     Min         119      39     10                62737    12039    1676
     Max         120      40     11                62810    12104    1727
     Sum       10797    3593    973              5650301  1087197  153831
 
     Using Slab Decomposition
 


     bravais-lattice index     =            0
     lattice parameter (alat)  =      10.7434  a.u.
     unit-cell volume          =    8296.9641 (a.u.)^3
     number of atoms/cell      =           20
     number of atomic types    =            1
     number of electrons       =       380.00
     number of Kohn-Sham states=          228
     kinetic-energy cutoff     =      98.0000  Ry
     charge density cutoff     =    1176.0000  Ry
     scf convergence threshold =      7.0E-06
     mixing beta               =       0.7000
     number of iterations used =            8  local-TF  mixing
     Exchange-correlation= PBESOL
                           (   1   4  10   8   0   0   0)

     celldm(1)=  10.743355  celldm(2)=   0.000000  celldm(3)=   0.000000
     celldm(4)=   0.000000  celldm(5)=   0.000000  celldm(6)=   0.000000

     crystal axes: (cart. coord. in units of alat)
               a(1) = (   1.000000   0.000000   0.000000 )  
               a(2) = (   0.000000   1.000000   0.000000 )  
               a(3) = (   0.000000   0.000000   6.691130 )  

     reciprocal axes: (cart. coord. in units 2 pi/alat)
               b(1) = (  1.000000  0.000000  0.000000 )  
               b(2) = (  0.000000  1.000000  0.000000 )  
               b(3) = (  0.000000  0.000000  0.149452 )  


     PseudoPot. # 1 for Ag read from file:
     ../pseudo/Ag.upf
     MD5 check sum: ad830d0ddad01bb1c4c3455ef2da8ae5
     Pseudo is Norm-conserving + core correction, Zval = 19.0
     Generated using ONCVPSP code by D. R. Hamann
     Using radial grid of 1538 points,  6 beta functions with: 
                l(1) =   0
                l(2) =   0
                l(3) =   1
                l(4) =   1
                l(5) =   2
                l(6) =   2

     atomic species   valence    mass     pseudopotential
        Ag            19.00   107.86820     Ag( 1.00)

      8 Sym. Ops. (no inversion) found


                                    s                        frac. trans.

      isym =  1     identity                                     

 cryst.   s( 1) = (     1          0          0      )
                  (     0          1          0      )
                  (     0          0          1      )

 cart.    s( 1) = (  1.0000000  0.0000000  0.0000000 )
                  (  0.0000000  1.0000000  0.0000000 )
                  (  0.0000000  0.0000000  1.0000000 )


      isym =  2     180 deg rotation - cart. axis [0,0,1]        

 cryst.   s( 2) = (    -1          0          0      )
                  (     0         -1          0      )
                  (     0          0          1      )

 cart.    s( 2) = ( -1.0000000  0.0000000  0.0000000 )
                  (  0.0000000 -1.0000000  0.0000000 )
                  (  0.0000000  0.0000000  1.0000000 )


      isym =  3      90 deg rotation - cart. axis [0,0,-1]       

 cryst.   s( 3) = (     0         -1          0      )
                  (     1          0          0      )
                  (     0          0          1      )

 cart.    s( 3) = (  0.0000000  1.0000000  0.0000000 )
                  ( -1.0000000  0.0000000  0.0000000 )
                  (  0.0000000  0.0000000  1.0000000 )


      isym =  4      90 deg rotation - cart. axis [0,0,1]        

 cryst.   s( 4) = (     0          1          0      )
                  (    -1          0          0      )
                  (     0          0          1      )

 cart.    s( 4) = (  0.0000000 -1.0000000  0.0000000 )
                  (  1.0000000  0.0000000  0.0000000 )
                  (  0.0000000  0.0000000  1.0000000 )


      isym =  5     inv. 180 deg rotation - cart. axis [0,1,0]   

 cryst.   s( 5) = (     1          0          0      )
                  (     0         -1          0      )
                  (     0          0          1      )

 cart.    s( 5) = (  1.0000000  0.0000000  0.0000000 )
                  (  0.0000000 -1.0000000  0.0000000 )
                  (  0.0000000  0.0000000  1.0000000 )


      isym =  6     inv. 180 deg rotation - cart. axis [1,0,0]   

 cryst.   s( 6) = (    -1          0          0      )
                  (     0          1          0      )
                  (     0          0          1      )

 cart.    s( 6) = ( -1.0000000  0.0000000  0.0000000 )
                  (  0.0000000  1.0000000  0.0000000 )
                  (  0.0000000  0.0000000  1.0000000 )


      isym =  7     inv. 180 deg rotation - cart. axis [1,1,0]   

 cryst.   s( 7) = (     0         -1          0      )
                  (    -1          0          0      )
                  (     0          0          1      )

 cart.    s( 7) = (  0.0000000 -1.0000000  0.0000000 )
                  ( -1.0000000  0.0000000  0.0000000 )
                  (  0.0000000  0.0000000  1.0000000 )


      isym =  8     inv. 180 deg rotation - cart. axis [1,-1,0]  

 cryst.   s( 8) = (     0          1          0      )
                  (     1          0          0      )
                  (     0          0          1      )

 cart.    s( 8) = (  0.0000000  1.0000000  0.0000000 )
                  (  1.0000000  0.0000000  0.0000000 )
                  (  0.0000000  0.0000000  1.0000000 )


   Cartesian axes

     site n.     atom                  positions (alat units)
         1           Ag  tau(   1) = (   0.0000000   0.0000000   2.6384581  )
         2           Ag  tau(   2) = (   0.5000000   0.0000000   2.6384581  )
         3           Ag  tau(   3) = (   0.0000000   0.5000000   2.6384581  )
         4           Ag  tau(   4) = (   0.5000000   0.5000000   2.6384581  )
         5           Ag  tau(   5) = (   0.2500000   0.2500000   2.9861117  )
         6           Ag  tau(   6) = (   0.7500000   0.2500000   2.9861117  )
         7           Ag  tau(   7) = (   0.2500000   0.7500000   2.9861117  )
         8           Ag  tau(   8) = (   0.7500000   0.7500000   2.9861117  )
         9           Ag  tau(   9) = (   0.0000000   0.0000000   3.3455743  )
        10           Ag  tau(  10) = (   0.5000000   0.0000000   3.3455743  )
        11           Ag  tau(  11) = (   0.0000000   0.5000000   3.3455743  )
        12           Ag  tau(  12) = (   0.5000000   0.5000000   3.3455743  )
        13           Ag  tau(  13) = (   0.2500000   0.2500000   3.7051508  )
        14           Ag  tau(  14) = (   0.7500000   0.2500000   3.7051508  )
        15           Ag  tau(  15) = (   0.2500000   0.7500000   3.7051508  )
        16           Ag  tau(  16) = (   0.7500000   0.7500000   3.7051508  )
        17           Ag  tau(  17) = (   0.0000000   0.0000000   4.0558590  )
        18           Ag  tau(  18) = (   0.5000000   0.0000000   4.0558590  )
        19           Ag  tau(  19) = (   0.0000000   0.5000000   4.0558590  )
        20           Ag  tau(  20) = (   0.5000000   0.5000000   4.0558590  )

   Crystallographic axes

     site n.     atom                  positions (cryst. coord.)
         1           Ag  tau(   1) = (  0.0000000  0.0000000  0.3943218  )
         2           Ag  tau(   2) = (  0.5000000  0.0000000  0.3943218  )
         3           Ag  tau(   3) = (  0.0000000  0.5000000  0.3943218  )
         4           Ag  tau(   4) = (  0.5000000  0.5000000  0.3943218  )
         5           Ag  tau(   5) = (  0.2500000  0.2500000  0.4462791  )
         6           Ag  tau(   6) = (  0.7500000  0.2500000  0.4462791  )
         7           Ag  tau(   7) = (  0.2500000  0.7500000  0.4462791  )
         8           Ag  tau(   8) = (  0.7500000  0.7500000  0.4462791  )
         9           Ag  tau(   9) = (  0.0000000  0.0000000  0.5000014  )
        10           Ag  tau(  10) = (  0.5000000  0.0000000  0.5000014  )
        11           Ag  tau(  11) = (  0.0000000  0.5000000  0.5000014  )
        12           Ag  tau(  12) = (  0.5000000  0.5000000  0.5000014  )
        13           Ag  tau(  13) = (  0.2500000  0.2500000  0.5537407  )
        14           Ag  tau(  14) = (  0.7500000  0.2500000  0.5537407  )
        15           Ag  tau(  15) = (  0.2500000  0.7500000  0.5537407  )
        16           Ag  tau(  16) = (  0.7500000  0.7500000  0.5537407  )
        17           Ag  tau(  17) = (  0.0000000  0.0000000  0.6061546  )
        18           Ag  tau(  18) = (  0.5000000  0.0000000  0.6061546  )
        19           Ag  tau(  19) = (  0.0000000  0.5000000  0.6061546  )
        20           Ag  tau(  20) = (  0.5000000  0.5000000  0.6061546  )

     number of k points=     6  Marzari-Vanderbilt smearing, width (Ry)=  0.0220
                       cart. coord. in units 2pi/alat
        k(    1) = (   0.0000000   0.0000000   0.0000000), wk =   0.1250000
        k(    2) = (   0.0000000   0.2500000   0.0000000), wk =   0.5000000
        k(    3) = (   0.0000000  -0.5000000   0.0000000), wk =   0.2500000
        k(    4) = (   0.2500000   0.2500000   0.0000000), wk =   0.5000000
        k(    5) = (   0.2500000  -0.5000000   0.0000000), wk =   0.5000000
        k(    6) = (  -0.5000000  -0.5000000   0.0000000), wk =   0.1250000

                       cryst. coord.
        k(    1) = (   0.0000000   0.0000000   0.0000000), wk =   0.1250000
        k(    2) = (   0.0000000   0.2500000   0.0000000), wk =   0.5000000
        k(    3) = (   0.0000000  -0.5000000   0.0000000), wk =   0.2500000
        k(    4) = (   0.2500000   0.2500000   0.0000000), wk =   0.5000000
        k(    5) = (   0.2500000  -0.5000000   0.0000000), wk =   0.5000000
        k(    6) = (  -0.5000000  -0.5000000   0.0000000), wk =   0.1250000

     Dense  grid:  5650301 G-vectors     FFT dimensions: ( 120, 120, 800)

     Smooth grid:  1087197 G-vectors     FFT dimensions: (  72,  72, 480)

     Dynamical RAM for                 wfc:       5.25 MB

     Dynamical RAM for     wfc (w. buffer):      36.77 MB

     Dynamical RAM for           str. fact:       0.96 MB

     Dynamical RAM for           local pot:       0.00 MB

     Dynamical RAM for          nlocal pot:       8.29 MB

     Dynamical RAM for                qrad:       2.75 MB

     Dynamical RAM for          rho,v,vnew:       5.84 MB

     Dynamical RAM for               rhoin:       1.95 MB

     Dynamical RAM for            rho*nmix:      15.33 MB

     Dynamical RAM for           G-vectors:       3.69 MB

     Dynamical RAM for          h,s,v(r/c):       0.11 MB

     Dynamical RAM for          <psi|beta>:       1.25 MB

     Dynamical RAM for                 psi:      10.51 MB

     Dynamical RAM for                hpsi:      10.51 MB

     Dynamical RAM for      wfcinit/wfcrot:      11.70 MB

     Estimated static dynamical RAM per process >      67.11 MB

     Estimated max dynamical RAM per process >     108.55 MB

     Estimated total dynamical RAM >       9.54 GB
     Cannot read rho : file not found

     Initial potential from superposition of free atoms

     starting charge     379.9917, renormalised to     380.0000

     negative rho (up, down):  9.493E-06 0.000E+00
     Message from routine qexsd_readschema :
     xml data file ../out/pure_100.save/data-file-schema.xml not found
     Cannot read wfcs: file not found
     Starting wfcs are  200 randomized atomic wfcs +   28 random wfcs

     total cpu time spent up to now is       12.8 secs

     Self-consistent Calculation

     iteration #  1     ecut=    98.00 Ry     beta= 0.70
     Davidson diagonalization with overlap

---- Real-time Memory Report at c_bands before calling an iterative solver
           149 MiB given to the printing process from OS
             0 MiB allocation reported by mallinfo(arena+hblkhd)
        175469 MiB available memory on the node where the printing process lives
------------------
     c_bands:  2 eigenvalues not converged
     c_bands:  2 eigenvalues not converged
     ethr =  1.00E-05,  avg # of iterations = 18.7

     total cpu time spent up to now is       56.7 secs

     total energy              =   -6195.44787927 Ry
     estimated scf accuracy    <       1.34447171 Ry

     iteration #  2     ecut=    98.00 Ry     beta= 0.70
     Davidson diagonalization with overlap

---- Real-time Memory Report at c_bands before calling an iterative solver
           170 MiB given to the printing process from OS
             0 MiB allocation reported by mallinfo(arena+hblkhd)
        173787 MiB available memory on the node where the printing process lives
------------------
     ethr =  3.54E-04,  avg # of iterations =  2.0

     total cpu time spent up to now is       71.7 secs

     total energy              =   -6195.58126505 Ry
     estimated scf accuracy    <       0.11296329 Ry

     iteration #  3     ecut=    98.00 Ry     beta= 0.70
     Davidson diagonalization with overlap

---- Real-time Memory Report at c_bands before calling an iterative solver
           171 MiB given to the printing process from OS
             0 MiB allocation reported by mallinfo(arena+hblkhd)
        173739 MiB available memory on the node where the printing process lives
------------------
     ethr =  2.97E-05,  avg # of iterations =  3.2

     total cpu time spent up to now is       86.2 secs

     total energy              =   -6195.58801713 Ry
     estimated scf accuracy    <       0.01740132 Ry

     iteration #  4     ecut=    98.00 Ry     beta= 0.70
     Davidson diagonalization with overlap

---- Real-time Memory Report at c_bands before calling an iterative solver
           172 MiB given to the printing process from OS
             0 MiB allocation reported by mallinfo(arena+hblkhd)
        173720 MiB available memory on the node where the printing process lives
------------------
     ethr =  4.58E-06,  avg # of iterations =  6.2

     total cpu time spent up to now is      101.4 secs

     total energy              =   -6195.58890600 Ry
     estimated scf accuracy    <       0.00105074 Ry

     iteration #  5     ecut=    98.00 Ry     beta= 0.70
     Davidson diagonalization with overlap

---- Real-time Memory Report at c_bands before calling an iterative solver
           173 MiB given to the printing process from OS
             0 MiB allocation reported by mallinfo(arena+hblkhd)
        173701 MiB available memory on the node where the printing process lives
------------------
     ethr =  2.77E-07,  avg # of iterations =  2.7

     total cpu time spent up to now is      114.4 secs

     total energy              =   -6195.58880449 Ry
     estimated scf accuracy    <       0.00059711 Ry

     iteration #  6     ecut=    98.00 Ry     beta= 0.70
     Davidson diagonalization with overlap

---- Real-time Memory Report at c_bands before calling an iterative solver
           173 MiB given to the printing process from OS
             0 MiB allocation reported by mallinfo(arena+hblkhd)
        173683 MiB available memory on the node where the printing process lives
------------------
     ethr =  1.57E-07,  avg # of iterations =  6.3

     total cpu time spent up to now is      128.9 secs

     total energy              =   -6195.58880089 Ry
     estimated scf accuracy    <       0.00024512 Ry

     iteration #  7     ecut=    98.00 Ry     beta= 0.70
     Davidson diagonalization with overlap

---- Real-time Memory Report at c_bands before calling an iterative solver
           174 MiB given to the printing process from OS
             0 MiB allocation reported by mallinfo(arena+hblkhd)
        173671 MiB available memory on the node where the printing process lives
------------------
     ethr =  6.45E-08,  avg # of iterations =  3.7

     negative rho (up, down):  4.571E-04 0.000E+00

     total cpu time spent up to now is      145.1 secs

     total energy              =   -6195.58878287 Ry
     estimated scf accuracy    <       0.00014290 Ry

     iteration #  8     ecut=    98.00 Ry     beta= 0.70
     Davidson diagonalization with overlap

---- Real-time Memory Report at c_bands before calling an iterative solver
           174 MiB given to the printing process from OS
             0 MiB allocation reported by mallinfo(arena+hblkhd)
        173648 MiB available memory on the node where the printing process lives
------------------
     ethr =  3.76E-08,  avg # of iterations =  5.0

     negative rho (up, down):  1.990E-03 0.000E+00

     total cpu time spent up to now is      163.6 secs

     total energy              =   -6195.58880091 Ry
     estimated scf accuracy    <       0.00007361 Ry

     iteration #  9     ecut=    98.00 Ry     beta= 0.70
     Davidson diagonalization with overlap

---- Real-time Memory Report at c_bands before calling an iterative solver
           174 MiB given to the printing process from OS
             0 MiB allocation reported by mallinfo(arena+hblkhd)
        173611 MiB available memory on the node where the printing process lives
------------------
     ethr =  1.94E-08,  avg # of iterations =  4.0

     negative rho (up, down):  1.960E-03 0.000E+00

     total cpu time spent up to now is      183.7 secs

     total energy              =   -6195.58882144 Ry
     estimated scf accuracy    <       0.00003010 Ry

     iteration # 10     ecut=    98.00 Ry     beta= 0.70
     Davidson diagonalization with overlap

---- Real-time Memory Report at c_bands before calling an iterative solver
           176 MiB given to the printing process from OS
             0 MiB allocation reported by mallinfo(arena+hblkhd)
        173516 MiB available memory on the node where the printing process lives
------------------
     ethr =  7.92E-09,  avg # of iterations =  4.2

     total cpu time spent up to now is      197.8 secs

     End of self-consistent calculation

          k = 0.0000 0.0000 0.0000 (135767 PWs)   bands (ev):

   -90.3573 -90.3493 -90.3493 -90.3479 -90.3419 -90.3398 -90.3398 -90.3325
   -90.2597 -90.2532 -90.2532 -90.2459 -90.0567 -90.0495 -90.0495 -90.0460
   -90.0421 -90.0388 -90.0388 -90.0315 -53.9308 -53.9308 -53.9150 -53.9150
   -53.9129 -53.9129 -53.9006 -53.9006 -53.8887 -53.8818 -53.8818 -53.8561
   -53.8462 -53.8462 -53.8347 -53.8245 -53.8137 -53.8137 -53.8030 -53.8030
   -53.8007 -53.8007 -53.7913 -53.7913 -53.7867 -53.7867 -53.7735 -53.7735
   -53.7521 -53.7460 -53.7460 -53.7392 -53.6976 -53.6976 -53.6946 -53.6946
   -53.6128 -53.6128 -53.6082 -53.6082 -53.6028 -53.6028 -53.5977 -53.5977
   -53.5464 -53.5408 -53.5408 -53.5371 -53.5358 -53.5300 -53.5300 -53.5258
   -53.5151 -53.5151 -53.5085 -53.5085 -53.5045 -53.5045 -53.4978 -53.4978
    -6.1299  -5.2698  -4.8973  -4.8733  -4.8012  -4.8012  -4.7786  -4.7786
    -4.7574  -4.7510  -4.6703  -4.6703  -4.5349  -4.4772  -4.4661  -4.3444
    -4.3444  -4.2776  -4.2776  -4.2732  -4.2044  -4.1748  -4.1748  -3.9634
    -3.9516  -3.6643  -3.6643  -3.5500  -3.4456  -3.4456  -3.3945  -3.3945
    -3.3341  -3.2931  -3.2931  -3.2623  -3.2623  -3.2416  -3.2416  -3.2109
    -3.2109  -3.1227  -3.1227  -3.0714  -3.0714  -3.0698  -3.0698  -2.8349
    -2.8349  -2.8308  -2.8308  -2.7110  -2.7110  -2.7087  -2.7087  -2.3850
    -2.3850  -2.3675  -2.3310  -2.3310  -2.2502  -2.2224  -2.2224  -2.0675
    -2.0675  -2.0327  -2.0154  -2.0154  -2.0123  -1.9571  -1.9115  -1.9115
    -1.8647  -1.8100  -1.6428  -1.6428  -1.6135  -1.5940  -1.5940  -1.5356
    -1.5191  -1.5191  -1.4877  -1.4877  -1.4286  -1.3762  -1.3762  -1.3524
    -1.3524  -1.3519  -1.3219  -1.3182  -1.3182  -1.3029  -1.3029  -1.2562
    -1.1350  -1.1350  -1.0609  -1.0511  -0.9423  -0.7899  -0.7789  -0.3795
     1.1721   1.1721   1.1962   1.1962   1.2456   1.2456   1.7017   1.7017
     1.7402   1.7402   1.7540   2.9377   3.8536   3.8536   4.5838   4.5838
     4.8460   4.8460   5.3766   5.3766   5.6361   5.7773   5.9012   6.3093
     6.5053   6.5053   6.5914   7.1334   7.1334   7.1778   7.4575   7.4575
     7.7113   8.4269   8.4269   8.5074   8.8187   8.8246   8.9246   9.0501
     9.1021   9.1745   9.4681   9.4681

     occupation numbers 
     1.0000   1.0000   1.0000   1.0000   1.0000   1.0000   1.0000   1.0000
     1.0000   1.0000   1.0000   1.0000   1.0000   1.0000   1.0000   1.0000
     1.0000   1.0000   1.0000   1.0000   1.0000   1.0000   1.0000   1.0000
     1.0000   1.0000   1.0000   1.0000   1.0000   1.0000   1.0000   1.0000
     1.0000   1.0000   1.0000   1.0000   1.0000   1.0000   1.0000   1.0000
     1.0000   1.0000   1.0000   1.0000   1.0000   1.0000   1.0000   1.0000
     1.0000   1.0000   1.0000   1.0000   1.0000   1.0000   1.0000   1.0000
     1.0000   1.0000   1.0000   1.0000   1.0000   1.0000   1.0000   1.0000
     1.0000   1.0000   1.0000   1.0000   1.0000   1.0000   1.0000   1.0000
     1.0000   1.0000   1.0000   1.0000   1.0000   1.0000   1.0000   1.0000
     1.0000   1.0000   1.0000   1.0000   1.0000   1.0000   1.0000   1.0000
     1.0000   1.0000   1.0000   1.0000   1.0000   1.0000   1.0000   1.0000
     1.0000   1.0000   1.0000   1.0000   1.0000   1.0000   1.0000   1.0000
     1.0000   1.0000   1.0000   1.0000   1.0000   1.0000   1.0000   1.0000
     1.0000   1.0000   1.0000   1.0000   1.0000   1.0000   1.0000   1.0000
     1.0000   1.0000   1.0000   1.0000   1.0000   1.0000   1.0000   1.0000
     1.0000   1.0000   1.0000   1.0000   1.0000   1.0000   1.0000   1.0000
     1.0000   1.0000   1.0000   1.0000   1.0000   1.0000   1.0000   1.0000
     1.0000   1.0000   1.0000   1.0000   1.0000   1.0000   1.0000   1.0000
     1.0000   1.0000   1.0000   1.0000   1.0000   1.0000   1.0000   1.0000
     1.0000   1.0000   1.0000   1.0000   1.0000   1.0000   1.0000   1.0000
     1.0000   1.0000   1.0000   1.0000   1.0000   1.0000   1.0000   1.0000
     1.0000   1.0000   1.0000   1.0000   1.0000   1.0000   1.0000   1.0000
     1.0782   1.0782   1.0820   1.0820   1.0813   1.0813   0.2768   0.2768
     0.2095   0.2095   0.1881   0.0000   0.0000   0.0000   0.0000   0.0000
     0.0000   0.0000   0.0000   0.0000   0.0000   0.0000   0.0000   0.0000
     0.0000   0.0000   0.0000   0.0000   0.0000   0.0000   0.0000   0.0000
     0.0000   0.0000   0.0000   0.0000   0.0000   0.0000   0.0000   0.0000
     0.0000   0.0000   0.0000   0.0000

          k = 0.0000 0.2500 0.0000 (135906 PWs)   bands (ev):

   -90.3562 -90.3504 -90.3482 -90.3467 -90.3430 -90.3410 -90.3387 -90.3335
   -90.2587 -90.2542 -90.2521 -90.2470 -90.0556 -90.0505 -90.0484 -90.0449
   -90.0432 -90.0399 -90.0377 -90.0325 -53.9272 -53.9151 -53.9149 -53.9117
   -53.9038 -53.8999 -53.8988 -53.8855 -53.8844 -53.8768 -53.8740 -53.8576
   -53.8512 -53.8439 -53.8416 -53.8296 -53.8295 -53.8208 -53.8183 -53.8118
   -53.8087 -53.8026 -53.8013 -53.7931 -53.7808 -53.7743 -53.7709 -53.7657
   -53.7510 -53.7467 -53.7432 -53.7373 -53.7115 -53.7089 -53.6971 -53.6950
   -53.6120 -53.6087 -53.6019 -53.5991 -53.5984 -53.5938 -53.5890 -53.5833
   -53.5455 -53.5414 -53.5403 -53.5376 -53.5348 -53.5306 -53.5298 -53.5294
   -53.5264 -53.5233 -53.5193 -53.5142 -53.5125 -53.5095 -53.5035 -53.4987
    -5.8134  -5.0197  -4.7520  -4.7361  -4.7296  -4.7176  -4.6161  -4.6104
    -4.5951  -4.5870  -4.5543  -4.5510  -4.4083  -4.4007  -4.3479  -4.2403
    -4.2181  -4.2081  -4.1661  -4.1641  -4.1603  -4.0662  -4.0563  -3.9384
    -3.7817  -3.7398  -3.6559  -3.5739  -3.5366  -3.4693  -3.4505  -3.4271
    -3.4154  -3.4007  -3.3328  -3.3032  -3.2654  -3.2151  -3.2140  -3.1513
    -3.1258  -3.1256  -3.0287  -3.0157  -3.0097  -3.0057  -2.9736  -2.9706
    -2.9483  -2.9193  -2.7957  -2.7408  -2.7074  -2.6941  -2.6921  -2.5362
    -2.5351  -2.4267  -2.4029  -2.3854  -2.3598  -2.3404  -2.3062  -2.2221
    -2.1848  -2.1488  -2.1181  -2.1017  -2.0465  -2.0116  -1.9890  -1.9166
    -1.9112  -1.7971  -1.7739  -1.7662  -1.7260  -1.7016  -1.6564  -1.6372
    -1.6358  -1.6238  -1.6115  -1.5906  -1.5606  -1.5256  -1.4968  -1.4667
    -1.4462  -1.4186  -1.3664  -1.3453  -1.3251  -1.3208  -1.2808  -1.2769
    -1.2726  -1.2227  -1.2202  -1.2126  -1.1218  -1.0668  -1.0006  -0.8730
    -0.8498   0.2225   0.4617   1.5449   1.5542   1.8382   2.1881   2.2745
     2.4557   2.4754   3.2326   3.2495   3.6213   3.9696   4.4634   4.5467
     4.7706   5.1354   5.1436   5.3106   5.9265   6.0754   6.1094   6.1889
     6.2713   6.6117   6.6342   6.8740   7.0708   7.1367   7.3576   7.4774
     7.6988   7.9843   8.1464   8.2430   8.3894   8.4689   8.5966   8.6924
     8.8013   9.1129   9.1539   9.2933

     occupation numbers 
     1.0000   1.0000   1.0000   1.0000   1.0000   1.0000   1.0000   1.0000
     1.0000   1.0000   1.0000   1.0000   1.0000   1.0000   1.0000   1.0000
     1.0000   1.0000   1.0000   1.0000   1.0000   1.0000   1.0000   1.0000
     1.0000   1.0000   1.0000   1.0000   1.0000   1.0000   1.0000   1.0000
     1.0000   1.0000   1.0000   1.0000   1.0000   1.0000   1.0000   1.0000
     1.0000   1.0000   1.0000   1.0000   1.0000   1.0000   1.0000   1.0000
     1.0000   1.0000   1.0000   1.0000   1.0000   1.0000   1.0000   1.0000
     1.0000   1.0000   1.0000   1.0000   1.0000   1.0000   1.0000   1.0000
     1.0000   1.0000   1.0000   1.0000   1.0000   1.0000   1.0000   1.0000
     1.0000   1.0000   1.0000   1.0000   1.0000   1.0000   1.0000   1.0000
     1.0000   1.0000   1.0000   1.0000   1.0000   1.0000   1.0000   1.0000
     1.0000   1.0000   1.0000   1.0000   1.0000   1.0000   1.0000   1.0000
     1.0000   1.0000   1.0000   1.0000   1.0000   1.0000   1.0000   1.0000
     1.0000   1.0000   1.0000   1.0000   1.0000   1.0000   1.0000   1.0000
     1.0000   1.0000   1.0000   1.0000   1.0000   1.0000   1.0000   1.0000
     1.0000   1.0000   1.0000   1.0000   1.0000   1.0000   1.0000   1.0000
     1.0000   1.0000   1.0000   1.0000   1.0000   1.0000   1.0000   1.0000
     1.0000   1.0000   1.0000   1.0000   1.0000   1.0000   1.0000   1.0000
     1.0000   1.0000   1.0000   1.0000   1.0000   1.0000   1.0000   1.0000
     1.0000   1.0000   1.0000   1.0000   1.0000   1.0000   1.0000   1.0000
     1.0000   1.0000   1.0000   1.0000   1.0000   1.0000   1.0000   1.0000
     1.0000   1.0000   1.0000   1.0000   1.0000   1.0000   1.0000   1.0000
     1.0000   1.0000   1.0000   1.0000   1.0000   1.0000   1.0000   1.0000
     1.0000   1.0000   1.0000   0.6407   0.6174   0.0900   0.0008   0.0002
     0.0000   0.0000   0.0000   0.0000   0.0000   0.0000   0.0000   0.0000
     0.0000   0.0000   0.0000   0.0000   0.0000   0.0000   0.0000   0.0000
     0.0000   0.0000   0.0000   0.0000   0.0000   0.0000   0.0000   0.0000
     0.0000   0.0000   0.0000   0.0000   0.0000   0.0000   0.0000   0.0000
     0.0000   0.0000   0.0000   0.0000

          k = 0.0000-0.5000 0.0000 (135922 PWs)   bands (ev):

   -90.3533 -90.3533 -90.3456 -90.3456 -90.3438 -90.3438 -90.3361 -90.3361
   -90.2564 -90.2564 -90.2495 -90.2495 -90.0531 -90.0531 -90.0458 -90.0458
   -90.0424 -90.0424 -90.0351 -90.0351 -53.9193 -53.9193 -53.9088 -53.9088
   -53.8820 -53.8820 -53.8715 -53.8715 -53.8699 -53.8699 -53.8562 -53.8562
   -53.8548 -53.8548 -53.8539 -53.8539 -53.8451 -53.8451 -53.8364 -53.8364
   -53.8071 -53.8071 -53.7973 -53.7973 -53.7731 -53.7731 -53.7486 -53.7486
   -53.7424 -53.7424 -53.7417 -53.7417 -53.7382 -53.7382 -53.6960 -53.6960
   -53.6102 -53.6102 -53.6000 -53.6000 -53.5651 -53.5651 -53.5589 -53.5589
   -53.5547 -53.5547 -53.5482 -53.5482 -53.5430 -53.5430 -53.5388 -53.5388
   -53.5324 -53.5324 -53.5278 -53.5278 -53.5118 -53.5118 -53.5011 -53.5011
    -5.0663  -5.0663  -4.7241  -4.7241  -4.4948  -4.4948  -4.4053  -4.4053
    -4.3713  -4.3713  -4.3329  -4.3329  -4.2558  -4.2558  -4.2415  -4.2415
    -4.2122  -4.2122  -4.1410  -4.1410  -3.9587  -3.9587  -3.8946  -3.8946
    -3.8810  -3.8810  -3.7704  -3.7704  -3.6301  -3.6301  -3.4868  -3.4868
    -3.3897  -3.3897  -3.2547  -3.2547  -3.1851  -3.1851  -2.9943  -2.9943
    -2.9846  -2.9846  -2.9141  -2.9141  -2.8571  -2.8571  -2.7783  -2.7783
    -2.7609  -2.7609  -2.7086  -2.7086  -2.6437  -2.6437  -2.6186  -2.6186
    -2.5709  -2.5709  -2.5368  -2.5368  -2.4272  -2.4272  -2.4215  -2.4215
    -2.4000  -2.4000  -2.3745  -2.3745  -2.3562  -2.3562  -2.3350  -2.3350
    -2.1538  -2.1538  -1.9959  -1.9959  -1.9169  -1.9169  -1.8955  -1.8955
    -1.8391  -1.8391  -1.8229  -1.8229  -1.7696  -1.7696  -1.6286  -1.6286
    -1.5141  -1.5141  -1.4358  -1.4358  -1.4283  -1.4283  -1.2789  -1.2789
    -1.2217  -1.2217  -1.2180  -1.2180  -1.1918  -1.1918  -1.1879  -1.1879
    -0.6719  -0.6719   1.2926   1.2926   2.2837   2.2837   2.3048   2.3048
     3.1030   3.1030   3.2854   3.2854   3.4597   3.4597   4.1302   4.1302
     5.1416   5.1416   5.3024   5.3024   6.0790   6.0790   6.7963   6.7963
     6.9685   6.9685   7.0470   7.0470   7.1206   7.1206   7.5179   7.5179
     7.5220   7.5220   7.7164   7.7164   8.1070   8.1070   8.3629   8.3629
     8.6220   8.6220   8.8008   8.8008

     occupation numbers 
     1.0000   1.0000   1.0000   1.0000   1.0000   1.0000   1.0000   1.0000
     1.0000   1.0000   1.0000   1.0000   1.0000   1.0000   1.0000   1.0000
     1.0000   1.0000   1.0000   1.0000   1.0000   1.0000   1.0000   1.0000
     1.0000   1.0000   1.0000   1.0000   1.0000   1.0000   1.0000   1.0000
     1.0000   1.0000   1.0000   1.0000   1.0000   1.0000   1.0000   1.0000
     1.0000   1.0000   1.0000   1.0000   1.0000   1.0000   1.0000   1.0000
     1.0000   1.0000   1.0000   1.0000   1.0000   1.0000   1.0000   1.0000
     1.0000   1.0000   1.0000   1.0000   1.0000   1.0000   1.0000   1.0000
     1.0000   1.0000   1.0000   1.0000   1.0000   1.0000   1.0000   1.0000
     1.0000   1.0000   1.0000   1.0000   1.0000   1.0000   1.0000   1.0000
     1.0000   1.0000   1.0000   1.0000   1.0000   1.0000   1.0000   1.0000
     1.0000   1.0000   1.0000   1.0000   1.0000   1.0000   1.0000   1.0000
     1.0000   1.0000   1.0000   1.0000   1.0000   1.0000   1.0000   1.0000
     1.0000   1.0000   1.0000   1.0000   1.0000   1.0000   1.0000   1.0000
     1.0000   1.0000   1.0000   1.0000   1.0000   1.0000   1.0000   1.0000
     1.0000   1.0000   1.0000   1.0000   1.0000   1.0000   1.0000   1.0000
     1.0000   1.0000   1.0000   1.0000   1.0000   1.0000   1.0000   1.0000
     1.0000   1.0000   1.0000   1.0000   1.0000   1.0000   1.0000   1.0000
     1.0000   1.0000   1.0000   1.0000   1.0000   1.0000   1.0000   1.0000
     1.0000   1.0000   1.0000   1.0000   1.0000   1.0000   1.0000   1.0000
     1.0000   1.0000   1.0000   1.0000   1.0000   1.0000   1.0000   1.0000
     1.0000   1.0000   1.0000   1.0000   1.0000   1.0000   1.0000   1.0000
     1.0000   1.0000   1.0000   1.0000   1.0000   1.0000   1.0000   1.0000
     1.0000   1.0000   1.0656   1.0656   0.0001   0.0001   0.0001   0.0001
     0.0000   0.0000   0.0000   0.0000   0.0000   0.0000   0.0000   0.0000
     0.0000   0.0000   0.0000   0.0000   0.0000   0.0000   0.0000   0.0000
     0.0000   0.0000   0.0000   0.0000   0.0000   0.0000   0.0000   0.0000
     0.0000   0.0000   0.0000   0.0000   0.0000   0.0000   0.0000   0.0000
     0.0000   0.0000   0.0000   0.0000

          k = 0.2500 0.2500 0.0000 (135950 PWs)   bands (ev):

   -90.3550 -90.3493 -90.3493 -90.3455 -90.3441 -90.3399 -90.3399 -90.3346
   -90.2578 -90.2531 -90.2531 -90.2480 -90.0546 -90.0495 -90.0495 -90.0443
   -90.0439 -90.0388 -90.0388 -90.0336 -53.9116 -53.9116 -53.9001 -53.8995
   -53.8971 -53.8971 -53.8899 -53.8864 -53.8801 -53.8701 -53.8701 -53.8576
   -53.8485 -53.8485 -53.8462 -53.8331 -53.8290 -53.8285 -53.8202 -53.8202
   -53.8195 -53.8173 -53.8106 -53.8106 -53.7738 -53.7679 -53.7639 -53.7639
   -53.7491 -53.7434 -53.7434 -53.7361 -53.7110 -53.7108 -53.7091 -53.7091
   -53.5982 -53.5982 -53.5946 -53.5944 -53.5880 -53.5880 -53.5842 -53.5840
   -53.5446 -53.5409 -53.5409 -53.5381 -53.5339 -53.5300 -53.5300 -53.5288
   -53.5288 -53.5270 -53.5242 -53.5242 -53.5183 -53.5182 -53.5135 -53.5135
    -5.5027  -4.7405  -4.5990  -4.5323  -4.5323  -4.5258  -4.5258  -4.5143
    -4.4847  -4.4722  -4.4431  -4.4328  -4.2105  -4.1954  -4.1954  -4.1835
    -4.1262  -4.1262  -4.0826  -4.0420  -4.0350  -3.9406  -3.8473  -3.8326
    -3.8326  -3.7856  -3.6262  -3.5689  -3.5689  -3.5646  -3.5646  -3.5125
    -3.4802  -3.4802  -3.3116  -3.2584  -3.1936  -3.1936  -3.1404  -3.1404
    -3.1280  -3.1280  -3.1040  -3.1018  -3.0668  -2.9683  -2.9683  -2.9296
    -2.9183  -2.9183  -2.7663  -2.7541  -2.7257  -2.7257  -2.6912  -2.6912
    -2.5541  -2.5494  -2.5494  -2.5084  -2.5084  -2.4635  -2.4556  -2.3452
    -2.2463  -2.1947  -2.1947  -2.1521  -2.1252  -2.1182  -2.1182  -1.9935
    -1.9690  -1.9265  -1.8934  -1.8509  -1.8042  -1.8042  -1.7373  -1.7312
    -1.7312  -1.7278  -1.6955  -1.6679  -1.6679  -1.5865  -1.5654  -1.5392
    -1.5247  -1.5233  -1.4777  -1.4777  -1.4705  -1.4351  -1.4259  -1.3653
    -1.3653  -1.3632  -1.3632  -1.2634  -1.1494  -1.1260  -0.8523  -0.7025
    -0.7025  -0.2194  -0.2194   0.7000   1.1002   1.1230   1.1230   2.3593
     2.7367   3.0020   3.0020   3.9971   4.1880   4.3938   4.3938   5.3340
     5.4218   5.4218   5.5953   5.5953   5.7867   6.2167   6.3736   6.4757
     6.6476   6.9147   7.1549   7.2743   7.2743   7.4061   7.4061   7.6977
     7.7777   8.2550   8.5306   8.5306   8.5420   8.6772   8.6772   8.7493
     8.7493   8.9446   8.9446   9.0769

     occupation numbers 
     1.0000   1.0000   1.0000   1.0000   1.0000   1.0000   1.0000   1.0000
     1.0000   1.0000   1.0000   1.0000   1.0000   1.0000   1.0000   1.0000
     1.0000   1.0000   1.0000   1.0000   1.0000   1.0000   1.0000   1.0000
     1.0000   1.0000   1.0000   1.0000   1.0000   1.0000   1.0000   1.0000
     1.0000   1.0000   1.0000   1.0000   1.0000   1.0000   1.0000   1.0000
     1.0000   1.0000   1.0000   1.0000   1.0000   1.0000   1.0000   1.0000
     1.0000   1.0000   1.0000   1.0000   1.0000   1.0000   1.0000   1.0000
     1.0000   1.0000   1.0000   1.0000   1.0000   1.0000   1.0000   1.0000
     1.0000   1.0000   1.0000   1.0000   1.0000   1.0000   1.0000   1.0000
     1.0000   1.0000   1.0000   1.0000   1.0000   1.0000   1.0000   1.0000
     1.0000   1.0000   1.0000   1.0000   1.0000   1.0000   1.0000   1.0000
     1.0000   1.0000   1.0000   1.0000   1.0000   1.0000   1.0000   1.0000
     1.0000   1.0000   1.0000   1.0000   1.0000   1.0000   1.0000   1.0000
     1.0000   1.0000   1.0000   1.0000   1.0000   1.0000   1.0000   1.0000
     1.0000   1.0000   1.0000   1.0000   1.0000   1.0000   1.0000   1.0000
     1.0000   1.0000   1.0000   1.0000   1.0000   1.0000   1.0000   1.0000
     1.0000   1.0000   1.0000   1.0000   1.0000   1.0000   1.0000   1.0000
     1.0000   1.0000   1.0000   1.0000   1.0000   1.0000   1.0000   1.0000
     1.0000   1.0000   1.0000   1.0000   1.0000   1.0000   1.0000   1.0000
     1.0000   1.0000   1.0000   1.0000   1.0000   1.0000   1.0000   1.0000
     1.0000   1.0000   1.0000   1.0000   1.0000   1.0000   1.0000   1.0000
     1.0000   1.0000   1.0000   1.0000   1.0000   1.0000   1.0000   1.0000
     1.0000   1.0000   1.0000   1.0000   1.0000   1.0000   1.0000   1.0000
     1.0000   1.0000   1.0000   1.0007   1.0585   1.0655   1.0655   0.0000
     0.0000   0.0000   0.0000   0.0000   0.0000   0.0000   0.0000   0.0000
     0.0000   0.0000   0.0000   0.0000   0.0000   0.0000   0.0000   0.0000
     0.0000   0.0000   0.0000   0.0000   0.0000   0.0000   0.0000   0.0000
     0.0000   0.0000   0.0000   0.0000   0.0000   0.0000   0.0000   0.0000
     0.0000   0.0000   0.0000   0.0000

          k = 0.2500-0.5000 0.0000 (135938 PWs)   bands (ev):

   -90.3522 -90.3522 -90.3467 -90.3467 -90.3427 -90.3427 -90.3373 -90.3373
   -90.2554 -90.2554 -90.2506 -90.2506 -90.0520 -90.0520 -90.0469 -90.0469
   -90.0413 -90.0413 -90.0362 -90.0362 -53.9038 -53.9038 -53.8936 -53.8936
   -53.8778 -53.8778 -53.8684 -53.8684 -53.8652 -53.8652 -53.8556 -53.8556
   -53.8552 -53.8552 -53.8534 -53.8534 -53.8487 -53.8487 -53.8408 -53.8408
   -53.8241 -53.8241 -53.8147 -53.8147 -53.7656 -53.7656 -53.7455 -53.7455
   -53.7415 -53.7415 -53.7408 -53.7408 -53.7378 -53.7378 -53.7098 -53.7098
   -53.5962 -53.5962 -53.5859 -53.5859 -53.5641 -53.5641 -53.5598 -53.5598
   -53.5537 -53.5537 -53.5491 -53.5491 -53.5424 -53.5424 -53.5393 -53.5393
   -53.5317 -53.5317 -53.5283 -53.5283 -53.5265 -53.5265 -53.5159 -53.5159
    -4.7952  -4.7952  -4.4357  -4.4357  -4.3156  -4.3156  -4.2738  -4.2738
    -4.2515  -4.2515  -4.1858  -4.1858  -4.1540  -4.1540  -4.0452  -4.0452
    -4.0431  -4.0431  -4.0023  -4.0023  -3.9061  -3.9061  -3.8476  -3.8476
    -3.7570  -3.7570  -3.7290  -3.7290  -3.6355  -3.6355  -3.4768  -3.4768
    -3.4278  -3.4278  -3.2955  -3.2955  -3.2462  -3.2462  -3.1024  -3.1024
    -3.0945  -3.0945  -2.9801  -2.9801  -2.9372  -2.9372  -2.9145  -2.9145
    -2.8936  -2.8936  -2.8486  -2.8486  -2.7420  -2.7420  -2.6828  -2.6828
    -2.6407  -2.6407  -2.5425  -2.5425  -2.4530  -2.4530  -2.4209  -2.4209
    -2.4082  -2.4082  -2.3111  -2.3111  -2.3044  -2.3044  -2.2732  -2.2732
    -2.1089  -2.1089  -2.0824  -2.0824  -2.0710  -2.0710  -2.0326  -2.0326
    -1.8847  -1.8847  -1.8652  -1.8652  -1.8160  -1.8160  -1.7699  -1.7699
    -1.7598  -1.7598  -1.4850  -1.4850  -1.4575  -1.4575  -1.4328  -1.4328
    -1.4127  -1.4127  -1.2439  -1.2439  -1.2198  -1.2198  -1.1878  -1.1878
    -0.1577  -0.1577  -0.1078  -0.1078   0.8714   0.8714   1.7290   1.7290
     2.3849   2.3849   3.8511   3.8511   4.2125   4.2125   5.3018   5.3018
     5.5543   5.5543   6.2843   6.2843   6.3552   6.3552   7.0857   7.0857
     7.2660   7.2660   7.3308   7.3308   7.8210   7.8210   7.8875   7.8875
     7.9346   7.9346   8.0019   8.0019   8.2428   8.2428   8.6649   8.6649
     8.9560   8.9560   9.0692   9.0692

     occupation numbers 
     1.0000   1.0000   1.0000   1.0000   1.0000   1.0000   1.0000   1.0000
     1.0000   1.0000   1.0000   1.0000   1.0000   1.0000   1.0000   1.0000
     1.0000   1.0000   1.0000   1.0000   1.0000   1.0000   1.0000   1.0000
     1.0000   1.0000   1.0000   1.0000   1.0000   1.0000   1.0000   1.0000
     1.0000   1.0000   1.0000   1.0000   1.0000   1.0000   1.0000   1.0000
     1.0000   1.0000   1.0000   1.0000   1.0000   1.0000   1.0000   1.0000
     1.0000   1.0000   1.0000   1.0000   1.0000   1.0000   1.0000   1.0000
     1.0000   1.0000   1.0000   1.0000   1.0000   1.0000   1.0000   1.0000
     1.0000   1.0000   1.0000   1.0000   1.0000   1.0000   1.0000   1.0000
     1.0000   1.0000   1.0000   1.0000   1.0000   1.0000   1.0000   1.0000
     1.0000   1.0000   1.0000   1.0000   1.0000   1.0000   1.0000   1.0000
     1.0000   1.0000   1.0000   1.0000   1.0000   1.0000   1.0000   1.0000
     1.0000   1.0000   1.0000   1.0000   1.0000   1.0000   1.0000   1.0000
     1.0000   1.0000   1.0000   1.0000   1.0000   1.0000   1.0000   1.0000
     1.0000   1.0000   1.0000   1.0000   1.0000   1.0000   1.0000   1.0000
     1.0000   1.0000   1.0000   1.0000   1.0000   1.0000   1.0000   1.0000
     1.0000   1.0000   1.0000   1.0000   1.0000   1.0000   1.0000   1.0000
     1.0000   1.0000   1.0000   1.0000   1.0000   1.0000   1.0000   1.0000
     1.0000   1.0000   1.0000   1.0000   1.0000   1.0000   1.0000   1.0000
     1.0000   1.0000   1.0000   1.0000   1.0000   1.0000   1.0000   1.0000
     1.0000   1.0000   1.0000   1.0000   1.0000   1.0000   1.0000   1.0000
     1.0000   1.0000   1.0000   1.0000   1.0000   1.0000   1.0000   1.0000
     1.0000   1.0000   1.0000   1.0000   1.0000   1.0000   1.0000   1.0000
     1.0000   1.0000   1.0000   1.0000   1.0080   1.0080   0.2279   0.2279
     0.0000   0.0000   0.0000   0.0000   0.0000   0.0000   0.0000   0.0000
     0.0000   0.0000   0.0000   0.0000   0.0000   0.0000   0.0000   0.0000
     0.0000   0.0000   0.0000   0.0000   0.0000   0.0000   0.0000   0.0000
     0.0000   0.0000   0.0000   0.0000   0.0000   0.0000   0.0000   0.0000
     0.0000   0.0000   0.0000   0.0000

          k =-0.5000-0.5000 0.0000 (136072 PWs)   bands (ev):

   -90.3494 -90.3494 -90.3494 -90.3494 -90.3400 -90.3400 -90.3400 -90.3400
   -90.2530 -90.2530 -90.2530 -90.2530 -90.0495 -90.0494 -90.0494 -90.0494
   -90.0388 -90.0388 -90.0388 -90.0388 -53.8719 -53.8719 -53.8719 -53.8719
   -53.8642 -53.8642 -53.8642 -53.8642 -53.8600 -53.8600 -53.8600 -53.8600
   -53.8544 -53.8544 -53.8544 -53.8544 -53.8519 -53.8519 -53.8519 -53.8519
   -53.8476 -53.8476 -53.8476 -53.8476 -53.7424 -53.7424 -53.7424 -53.7424
   -53.7404 -53.7404 -53.7404 -53.7404 -53.7385 -53.7385 -53.7385 -53.7385
   -53.5620 -53.5620 -53.5620 -53.5620 -53.5618 -53.5618 -53.5618 -53.5618
   -53.5515 -53.5515 -53.5515 -53.5515 -53.5513 -53.5513 -53.5513 -53.5513
   -53.5406 -53.5405 -53.5405 -53.5405 -53.5298 -53.5297 -53.5297 -53.5297
    -4.3375  -4.3375  -4.3375  -4.3375  -4.0480  -4.0480  -4.0480  -4.0480
    -3.9750  -3.9750  -3.9750  -3.9750  -3.8777  -3.8777  -3.8777  -3.8777
    -3.7551  -3.7551  -3.7551  -3.7551  -3.7524  -3.7524  -3.7524  -3.7524
    -3.7395  -3.7395  -3.7395  -3.7395  -3.5707  -3.5707  -3.5707  -3.5707
    -3.5176  -3.5176  -3.5176  -3.5176  -3.5098  -3.5098  -3.5098  -3.5098
    -3.1484  -3.1484  -3.1484  -3.1484  -3.0678  -3.0678  -3.0678  -3.0678
    -2.8518  -2.8518  -2.8518  -2.8518  -2.5736  -2.5736  -2.5736  -2.5736
    -2.5588  -2.5588  -2.5588  -2.5588  -2.4452  -2.4452  -2.4452  -2.4452
    -2.3812  -2.3812  -2.3812  -2.3812  -2.2909  -2.2909  -2.2909  -2.2909
    -2.1338  -2.1338  -2.1338  -2.1338  -2.0794  -2.0794  -2.0794  -2.0794
    -2.0712  -2.0712  -2.0712  -2.0712  -2.0554  -2.0554  -2.0554  -2.0554
    -1.9074  -1.9074  -1.9074  -1.9074  -1.5653  -1.5653  -1.5653  -1.5653
    -1.4538  -1.4538  -1.4538  -1.4538  -1.1763  -1.1763  -1.1763  -1.1763
    -0.4949  -0.4949  -0.4949  -0.4949   0.9070   0.9070   0.9070   0.9070
     2.7597   2.7597   2.7597   2.7597   4.8583   4.8583   4.8583   4.8583
     6.6588   6.6588   6.6588   6.6588   7.9509   7.9509   7.9509   7.9509
     8.1545   8.1545   8.1545   8.1545   8.1737   8.1737   8.1737   8.1737
     8.2617   8.2617   8.2617   8.2617   8.7251   8.7251   8.7251   8.7251
     8.8070   8.8070   8.8070   8.8070

     occupation numbers 
     1.0000   1.0000   1.0000   1.0000   1.0000   1.0000   1.0000   1.0000
     1.0000   1.0000   1.0000   1.0000   1.0000   1.0000   1.0000   1.0000
     1.0000   1.0000   1.0000   1.0000   1.0000   1.0000   1.0000   1.0000
     1.0000   1.0000   1.0000   1.0000   1.0000   1.0000   1.0000   1.0000
     1.0000   1.0000   1.0000   1.0000   1.0000   1.0000   1.0000   1.0000
     1.0000   1.0000   1.0000   1.0000   1.0000   1.0000   1.0000   1.0000
     1.0000   1.0000   1.0000   1.0000   1.0000   1.0000   1.0000   1.0000
     1.0000   1.0000   1.0000   1.0000   1.0000   1.0000   1.0000   1.0000
     1.0000   1.0000   1.0000   1.0000   1.0000   1.0000   1.0000   1.0000
     1.0000   1.0000   1.0000   1.0000   1.0000   1.0000   1.0000   1.0000
     1.0000   1.0000   1.0000   1.0000   1.0000   1.0000   1.0000   1.0000
     1.0000   1.0000   1.0000   1.0000   1.0000   1.0000   1.0000   1.0000
     1.0000   1.0000   1.0000   1.0000   1.0000   1.0000   1.0000   1.0000
     1.0000   1.0000   1.0000   1.0000   1.0000   1.0000   1.0000   1.0000
     1.0000   1.0000   1.0000   1.0000   1.0000   1.0000   1.0000   1.0000
     1.0000   1.0000   1.0000   1.0000   1.0000   1.0000   1.0000   1.0000
     1.0000   1.0000   1.0000   1.0000   1.0000   1.0000   1.0000   1.0000
     1.0000   1.0000   1.0000   1.0000   1.0000   1.0000   1.0000   1.0000
     1.0000   1.0000   1.0000   1.0000   1.0000   1.0000   1.0000   1.0000
     1.0000   1.0000   1.0000   1.0000   1.0000   1.0000   1.0000   1.0000
     1.0000   1.0000   1.0000   1.0000   1.0000   1.0000   1.0000   1.0000
     1.0000   1.0000   1.0000   1.0000   1.0000   1.0000   1.0000   1.0000
     1.0000   1.0000   1.0000   1.0000   1.0000   1.0000   1.0000   1.0000
     1.0000   1.0000   1.0000   1.0000   1.0120   1.0120   1.0120   1.0120
     0.0000   0.0000   0.0000   0.0000   0.0000   0.0000   0.0000   0.0000
     0.0000   0.0000   0.0000   0.0000   0.0000   0.0000   0.0000   0.0000
     0.0000   0.0000   0.0000   0.0000   0.0000   0.0000   0.0000   0.0000
     0.0000   0.0000   0.0000   0.0000   0.0000   0.0000   0.0000   0.0000
     0.0000   0.0000   0.0000   0.0000

     the Fermi energy is     1.6428 ev

!    total energy              =   -6195.58882288 Ry
     estimated scf accuracy    <       0.00000677 Ry
     smearing contrib. (-TS)   =       0.00062945 Ry
     internal energy E=F+TS    =   -6195.58945233 Ry

     The total energy is F=E-TS. E is the sum of the following terms:
     one-electron contribution = -104953.27100013 Ry
     hartree contribution      =   52472.66390679 Ry
     xc contribution           =    -920.02893693 Ry
     ewald contribution        =   47205.04657794 Ry

     convergence has been achieved in  10 iterations

     Forces acting on atoms (cartesian axes, Ry/au):

     atom    1 type  1   force =     0.00000000    0.00000000   -0.00556932
     atom    2 type  1   force =     0.00000000    0.00000000   -0.00556898
     atom    3 type  1   force =     0.00000000    0.00000000   -0.00556898
     atom    4 type  1   force =     0.00000000    0.00000000   -0.00556907
     atom    5 type  1   force =     0.00000004    0.00000004    0.00435006
     atom    6 type  1   force =    -0.00000004    0.00000004    0.00435006
     atom    7 type  1   force =     0.00000004   -0.00000004    0.00435006
     atom    8 type  1   force =    -0.00000004   -0.00000004    0.00435006
     atom    9 type  1   force =     0.00000000    0.00000000    0.00019833
     atom   10 type  1   force =     0.00000000    0.00000000    0.00019831
     atom   11 type  1   force =     0.00000000    0.00000000    0.00019831
     atom   12 type  1   force =     0.00000000    0.00000000    0.00019829
     atom   13 type  1   force =    -0.00000004   -0.00000004   -0.00197745
     atom   14 type  1   force =     0.00000004   -0.00000004   -0.00197745
     atom   15 type  1   force =    -0.00000004    0.00000004   -0.00197745
     atom   16 type  1   force =     0.00000004    0.00000004   -0.00197745
     atom   17 type  1   force =     0.00000000    0.00000000    0.00299807
     atom   18 type  1   force =     0.00000000    0.00000000    0.00299836
     atom   19 type  1   force =     0.00000000    0.00000000    0.00299836
     atom   20 type  1   force =     0.00000000    0.00000000    0.00299788
     The non-local contrib.  to forces
     atom    1 type  1   force =     0.00000000    0.00000000   -0.23258898
     atom    2 type  1   force =     0.00000000    0.00000000   -0.23258922
     atom    3 type  1   force =     0.00000000    0.00000000   -0.23258922
     atom    4 type  1   force =     0.00000000    0.00000000   -0.23258922
     atom    5 type  1   force =    -0.00000003   -0.00000003   -0.02350987
     atom    6 type  1   force =     0.00000003   -0.00000003   -0.02350987
     atom    7 type  1   force =    -0.00000003    0.00000003   -0.02350987
     atom    8 type  1   force =     0.00000003    0.00000003   -0.02350987
     atom    9 type  1   force =     0.00000000    0.00000000    0.00004840
     atom   10 type  1   force =     0.00000000    0.00000000    0.00004841
     atom   11 type  1   force =     0.00000000    0.00000000    0.00004841
     atom   12 type  1   force =     0.00000000    0.00000000    0.00004829
     atom   13 type  1   force =    -0.00000006   -0.00000006    0.02718365
     atom   14 type  1   force =     0.00000006   -0.00000006    0.02718365
     atom   15 type  1   force =    -0.00000006    0.00000006    0.02718365
     atom   16 type  1   force =     0.00000006    0.00000006    0.02718365
     atom   17 type  1   force =     0.00000000    0.00000000    0.22964333
     atom   18 type  1   force =     0.00000000    0.00000000    0.22964346
     atom   19 type  1   force =     0.00000000    0.00000000    0.22964346
     atom   20 type  1   force =     0.00000000    0.00000000    0.22964334
     The ionic contribution  to forces
     atom    1 type  1   force =     0.00000000    0.00000000 -456.02295957
     atom    2 type  1   force =    -0.00000000    0.00000000 -456.02295612
     atom    3 type  1   force =     0.00000000   -0.00000000 -456.02295612
     atom    4 type  1   force =    -0.00000000   -0.00000000 -456.02295275
     atom    5 type  1   force =     0.00000605    0.00000605 -230.73901695
     atom    6 type  1   force =    -0.00000605    0.00000605 -230.73901695
     atom    7 type  1   force =     0.00000605   -0.00000605 -230.73901695
     atom    8 type  1   force =    -0.00000605   -0.00000605 -230.73901695
     atom    9 type  1   force =     0.00000000    0.00000000    0.15013604
     atom   10 type  1   force =    -0.00000000    0.00000000    0.15013959
     atom   11 type  1   force =     0.00000000   -0.00000000    0.15013959
     atom   12 type  1   force =    -0.00000000   -0.00000000    0.15013941
     atom   13 type  1   force =    -0.00000203   -0.00000203  230.79907339
     atom   14 type  1   force =     0.00000203   -0.00000203  230.79907339
     atom   15 type  1   force =    -0.00000203    0.00000203  230.79907339
     atom   16 type  1   force =     0.00000203    0.00000203  230.79907339
     atom   17 type  1   force =     0.00000000    0.00000000  455.81276732
     atom   18 type  1   force =    -0.00000000    0.00000000  455.81275851
     atom   19 type  1   force =     0.00000000   -0.00000000  455.81275851
     atom   20 type  1   force =    -0.00000000   -0.00000000  455.81275981
     The local contribution  to forces
     atom    1 type  1   force =     0.00000000    0.00000000  456.23486070
     atom    2 type  1   force =    -0.00000001    0.00000000  456.23485788
     atom    3 type  1   force =     0.00000000   -0.00000001  456.23485788
     atom    4 type  1   force =    -0.00000001   -0.00000001  456.23485546
     atom    5 type  1   force =    -0.00000604   -0.00000604  230.76595379
     atom    6 type  1   force =     0.00000601   -0.00000604  230.76595379
     atom    7 type  1   force =    -0.00000604    0.00000601  230.76595379
     atom    8 type  1   force =     0.00000601    0.00000601  230.76595379
     atom    9 type  1   force =     0.00000000    0.00000000   -0.15012060
     atom   10 type  1   force =    -0.00000001    0.00000000   -0.15012396
     atom   11 type  1   force =     0.00000000   -0.00000001   -0.15012396
     atom   12 type  1   force =    -0.00000001   -0.00000001   -0.15012382
     atom   13 type  1   force =     0.00000241    0.00000241 -230.82741414
     atom   14 type  1   force =    -0.00000243    0.00000241 -230.82741414
     atom   15 type  1   force =     0.00000241   -0.00000243 -230.82741414
     atom   16 type  1   force =    -0.00000243   -0.00000243 -230.82741414
     atom   17 type  1   force =     0.00000000    0.00000000 -456.02463548
     atom   18 type  1   force =    -0.00000001    0.00000000 -456.02462930
     atom   19 type  1   force =     0.00000000   -0.00000001 -456.02462930
     atom   20 type  1   force =    -0.00000001   -0.00000001 -456.02463029
     The core correction contribution to forces
     atom    1 type  1   force =     0.00000000   -0.00000000    0.01564420
     atom    2 type  1   force =     0.00000000   -0.00000000    0.01564426
     atom    3 type  1   force =    -0.00000000    0.00000000    0.01564426
     atom    4 type  1   force =     0.00000000    0.00000000    0.01564429
     atom    5 type  1   force =     0.00000001    0.00000001    0.00060078
     atom    6 type  1   force =    -0.00000001    0.00000001    0.00060078
     atom    7 type  1   force =     0.00000001   -0.00000001    0.00060078
     atom    8 type  1   force =    -0.00000001   -0.00000001    0.00060078
     atom    9 type  1   force =    -0.00000000   -0.00000000   -0.00000136
     atom   10 type  1   force =     0.00000000   -0.00000000   -0.00000135
     atom   11 type  1   force =    -0.00000000    0.00000000   -0.00000135
     atom   12 type  1   force =     0.00000000    0.00000000   -0.00000135
     atom   13 type  1   force =     0.00000001    0.00000001   -0.00082285
     atom   14 type  1   force =    -0.00000001    0.00000001   -0.00082285
     atom   15 type  1   force =     0.00000001   -0.00000001   -0.00082285
     atom   16 type  1   force =    -0.00000001   -0.00000001   -0.00082285
     atom   17 type  1   force =    -0.00000000   -0.00000000   -0.01542333
     atom   18 type  1   force =     0.00000000   -0.00000000   -0.01542341
     atom   19 type  1   force =    -0.00000000    0.00000000   -0.01542341
     atom   20 type  1   force =     0.00000000    0.00000000   -0.01542339
     The Hubbard contrib.    to forces
     atom    1 type  1   force =     0.00000000    0.00000000    0.00000000
     atom    2 type  1   force =     0.00000000    0.00000000    0.00000000
     atom    3 type  1   force =     0.00000000    0.00000000    0.00000000
     atom    4 type  1   force =     0.00000000    0.00000000    0.00000000
     atom    5 type  1   force =     0.00000000    0.00000000    0.00000000
     atom    6 type  1   force =     0.00000000    0.00000000    0.00000000
     atom    7 type  1   force =     0.00000000    0.00000000    0.00000000
     atom    8 type  1   force =     0.00000000    0.00000000    0.00000000
     atom    9 type  1   force =     0.00000000    0.00000000    0.00000000
     atom   10 type  1   force =     0.00000000    0.00000000    0.00000000
     atom   11 type  1   force =     0.00000000    0.00000000    0.00000000
     atom   12 type  1   force =     0.00000000    0.00000000    0.00000000
     atom   13 type  1   force =     0.00000000    0.00000000    0.00000000
     atom   14 type  1   force =     0.00000000    0.00000000    0.00000000
     atom   15 type  1   force =     0.00000000    0.00000000    0.00000000
     atom   16 type  1   force =     0.00000000    0.00000000    0.00000000
     atom   17 type  1   force =     0.00000000    0.00000000    0.00000000
     atom   18 type  1   force =     0.00000000    0.00000000    0.00000000
     atom   19 type  1   force =     0.00000000    0.00000000    0.00000000
     atom   20 type  1   force =     0.00000000    0.00000000    0.00000000
     The SCF correction term to forces
     atom    1 type  1   force =     0.00000000    0.00000000    0.00000000
     atom    2 type  1   force =     0.00000000    0.00000000    0.00000000
     atom    3 type  1   force =     0.00000000    0.00000000    0.00000000
     atom    4 type  1   force =     0.00000000    0.00000000    0.00000000
     atom    5 type  1   force =     0.00000004    0.00000004    0.00032164
     atom    6 type  1   force =    -0.00000004    0.00000004    0.00032164
     atom    7 type  1   force =     0.00000004   -0.00000004    0.00032164
     atom    8 type  1   force =    -0.00000004   -0.00000004    0.00032164
     atom    9 type  1   force =     0.00000000    0.00000000    0.00013517
     atom   10 type  1   force =    -0.00000000    0.00000000    0.00013495
     atom   11 type  1   force =     0.00000000   -0.00000000    0.00013495
     atom   12 type  1   force =    -0.00000000   -0.00000000    0.00013508
     atom   13 type  1   force =    -0.00000039   -0.00000039    0.00000183
     atom   14 type  1   force =     0.00000039   -0.00000039    0.00000183
     atom   15 type  1   force =    -0.00000039    0.00000039    0.00000183
     atom   16 type  1   force =     0.00000039    0.00000039    0.00000183
     atom   17 type  1   force =     0.00000000    0.00000000    0.00064555
     atom   18 type  1   force =    -0.00000000    0.00000000    0.00064842
     atom   19 type  1   force =     0.00000000   -0.00000000    0.00064842
     atom   20 type  1   force =    -0.00000000   -0.00000000    0.00064774

     Total force =     0.011289     Total SCF correction =     0.001471
     SCF correction compared to forces is large: reduce conv_thr to get better values


     Computing stress (Cartesian axis) and pressure

          total   stress  (Ry/bohr**3)                   (kbar)     P=       -1.06
  -0.00001725   0.00000000   0.00000000           -2.54        0.00        0.00
   0.00000000  -0.00001725   0.00000000            0.00       -2.54        0.00
   0.00000000   0.00000000   0.00001286            0.00        0.00        1.89

     kinetic stress (kbar)  24996.95      0.00      0.00
                                0.00  24996.95      0.00
                                0.00      0.00  25034.59

     local   stress (kbar)**********      0.00      0.00
                                0.00**********      0.00
                                0.00      0.001813188.50

     nonloc. stress (kbar)    444.18      0.00      0.00
                                0.00    444.18      0.00
                                0.00      0.00    430.99

     hartree stress (kbar) 913434.80     -0.00      0.00
                               -0.00 913434.80     -0.00
                                0.00     -0.00-896529.87

     exc-cor stress (kbar)   2544.37     -0.00      0.00
                               -0.00   2544.37      0.00
                                0.00      0.00   2542.73

     corecor stress (kbar)  -6714.28     -0.00     -0.00
                               -0.00  -6714.28     -0.00
                               -0.00     -0.00  -6713.93

     ewald   stress (kbar) 887448.03      0.00     -0.00
                                0.00 887448.03     -0.00
                               -0.00     -0.00-937951.12

     hubbard stress (kbar)      0.00      0.00      0.00
                                0.00      0.00      0.00
                                0.00      0.00      0.00

     DFT-D   stress (kbar)      0.00      0.00      0.00
                                0.00      0.00      0.00
                                0.00      0.00      0.00

     XDM     stress (kbar)      0.00      0.00      0.00
                                0.00      0.00      0.00
                                0.00      0.00      0.00

     dft-nl  stress (kbar)      0.00      0.00      0.00
                                0.00      0.00      0.00
                                0.00      0.00      0.00

     TS-vdW  stress (kbar)      0.00      0.00      0.00
                                0.00      0.00      0.00
                                0.00      0.00      0.00


                                0.00      0.00      0.00
                                0.00      0.00      0.00


                                0.00      0.00      0.00


     Writing all to output data dir ../out/pure_100.save/
 
     init_run     :     12.41s CPU     12.73s WALL (       1 calls)
     electrons    :    183.25s CPU    185.55s WALL (       1 calls)
     forces       :      3.20s CPU      3.22s WALL (       1 calls)
     stress       :     26.73s CPU     26.81s WALL (       1 calls)

     Called by init_run:
     wfcinit      :      3.93s CPU      4.04s WALL (       1 calls)
     wfcinit:atom :      0.07s CPU      0.07s WALL (       6 calls)
     wfcinit:wfcr :      3.70s CPU      3.81s WALL (       6 calls)
     potinit      :      0.58s CPU      0.60s WALL (       1 calls)
     hinit0       :      0.63s CPU      0.65s WALL (       1 calls)

     Called by electrons:
     c_bands      :    145.59s CPU    147.11s WALL (      10 calls)
     sum_band     :     11.66s CPU     11.82s WALL (      10 calls)
     v_of_rho     :      2.83s CPU      2.87s WALL (      11 calls)
     v_h          :      0.31s CPU      0.31s WALL (      11 calls)
     v_xc         :      2.98s CPU      3.02s WALL (      13 calls)
     mix_rho      :     22.86s CPU     23.08s WALL (      10 calls)

     Called by c_bands:
     init_us_2    :      1.42s CPU      1.43s WALL (     138 calls)
     init_us_2:cp :      1.41s CPU      1.43s WALL (     138 calls)
     cegterg      :    140.64s CPU    142.07s WALL (      60 calls)

     Called by sum_band:
     sum_band:wei :      0.02s CPU      0.02s WALL (      10 calls)
     sum_band:loo :     11.14s CPU     11.29s WALL (      10 calls)
     sum_band:buf :      0.51s CPU      0.53s WALL (      60 calls)
     sum_band:ini :      0.64s CPU      0.65s WALL (      60 calls)

     Called by *egterg:
     cdiaghg      :     13.30s CPU     13.62s WALL (     395 calls)
     cegterg:over :     13.59s CPU     13.66s WALL (     335 calls)
     cegterg:upda :     21.84s CPU     21.96s WALL (     335 calls)
     cegterg:last :     25.24s CPU     25.36s WALL (     136 calls)
     cdiaghg:chol :      0.48s CPU      0.50s WALL (     395 calls)
     cdiaghg:inve :      0.41s CPU      0.42s WALL (     395 calls)
     cdiaghg:para :      0.59s CPU      0.61s WALL (     790 calls)
     h_psi        :     63.78s CPU     64.62s WALL (     401 calls)
     g_psi        :      0.54s CPU      0.54s WALL (     335 calls)

     Called by h_psi:
     h_psi:calbec :     11.06s CPU     11.15s WALL (     401 calls)
     vloc_psi     :     42.47s CPU     43.14s WALL (     401 calls)
     add_vuspsi   :      8.98s CPU      9.05s WALL (     401 calls)

     General routines
     calbec       :     13.18s CPU     13.28s WALL (     431 calls)
     fft          :      2.98s CPU      3.03s WALL (     154 calls)
     ffts         :      9.41s CPU      9.51s WALL (    5384 calls)
     fftw         :     43.93s CPU     44.57s WALL (   83292 calls)
     interpolate  :      0.23s CPU      0.23s WALL (      11 calls)
 
     Parallel routines
 
     PWSCF        :   3m48.74s CPU   3m57.75s WALL

 
   This run was terminated on:  23:30:46  20Mar2022            

=------------------------------------------------------------------------------=
   JOB DONE.
=------------------------------------------------------------------------------=
